V -t * -v 1.0a5 -a 0
A -t * -n 1 -p 0 -o 0x7fffffff -c 30 -a 1
A -t * -h 1 -m 1073741823 -s 0
c -t * -i 1 -n Red
c -t * -i 2 -n Blue
n -t * -a 0 -s 0 -S UP -v circle -c black -i black
n -t * -a 1 -s 1 -S UP -v circle -c black -i black
n -t * -a 2 -s 2 -S UP -v circle -c black -i black
n -t * -a 3 -s 3 -S UP -v circle -c black -i black
l -t * -s 0 -d 2 -S UP -r 2000000 -D 0.10000000000000001 -c black
l -t * -s 1 -d 2 -S UP -r 2000000 -D 0.10000000000000001 -c black
l -t * -s 2 -d 3 -S UP -r 2000000 -D 0.10000000000000001 -c black
+ -t 0 -s 0 -d 2 -p cbr -e 500 -c 2 -i 0 -a 2 -x {0.0 3.1 0 ------- null}
- -t 0 -s 0 -d 2 -p cbr -e 500 -c 2 -i 0 -a 2 -x {0.0 3.1 0 ------- null}
h -t 0 -s 0 -d 2 -p cbr -e 500 -c 2 -i 0 -a 2 -x {0.0 3.1 -1 ------- null}
+ -t 0.0025 -s 0 -d 2 -p cbr -e 500 -c 2 -i 1 -a 2 -x {0.0 3.1 1 ------- null}
- -t 0.0025 -s 0 -d 2 -p cbr -e 500 -c 2 -i 1 -a 2 -x {0.0 3.1 1 ------- null}
h -t 0.0025 -s 0 -d 2 -p cbr -e 500 -c 2 -i 1 -a 2 -x {0.0 3.1 -1 ------- null}
+ -t 0.005 -s 0 -d 2 -p cbr -e 500 -c 2 -i 2 -a 2 -x {0.0 3.1 2 ------- null}
- -t 0.005 -s 0 -d 2 -p cbr -e 500 -c 2 -i 2 -a 2 -x {0.0 3.1 2 ------- null}
h -t 0.005 -s 0 -d 2 -p cbr -e 500 -c 2 -i 2 -a 2 -x {0.0 3.1 -1 ------- null}
+ -t 0.0075 -s 0 -d 2 -p cbr -e 500 -c 2 -i 3 -a 2 -x {0.0 3.1 3 ------- null}
- -t 0.0075 -s 0 -d 2 -p cbr -e 500 -c 2 -i 3 -a 2 -x {0.0 3.1 3 ------- null}
h -t 0.0075 -s 0 -d 2 -p cbr -e 500 -c 2 -i 3 -a 2 -x {0.0 3.1 -1 ------- null}
+ -t 0.01 -s 0 -d 2 -p cbr -e 500 -c 2 -i 4 -a 2 -x {0.0 3.1 4 ------- null}
- -t 0.01 -s 0 -d 2 -p cbr -e 500 -c 2 -i 4 -a 2 -x {0.0 3.1 4 ------- null}
h -t 0.01 -s 0 -d 2 -p cbr -e 500 -c 2 -i 4 -a 2 -x {0.0 3.1 -1 ------- null}
+ -t 0.0125 -s 0 -d 2 -p cbr -e 500 -c 2 -i 5 -a 2 -x {0.0 3.1 5 ------- null}
- -t 0.0125 -s 0 -d 2 -p cbr -e 500 -c 2 -i 5 -a 2 -x {0.0 3.1 5 ------- null}
h -t 0.0125 -s 0 -d 2 -p cbr -e 500 -c 2 -i 5 -a 2 -x {0.0 3.1 -1 ------- null}
+ -t 0.015 -s 0 -d 2 -p cbr -e 500 -c 2 -i 6 -a 2 -x {0.0 3.1 6 ------- null}
- -t 0.015 -s 0 -d 2 -p cbr -e 500 -c 2 -i 6 -a 2 -x {0.0 3.1 6 ------- null}
h -t 0.015 -s 0 -d 2 -p cbr -e 500 -c 2 -i 6 -a 2 -x {0.0 3.1 -1 ------- null}
+ -t 0.0175 -s 0 -d 2 -p cbr -e 500 -c 2 -i 7 -a 2 -x {0.0 3.1 7 ------- null}
- -t 0.0175 -s 0 -d 2 -p cbr -e 500 -c 2 -i 7 -a 2 -x {0.0 3.1 7 ------- null}
h -t 0.0175 -s 0 -d 2 -p cbr -e 500 -c 2 -i 7 -a 2 -x {0.0 3.1 -1 ------- null}
+ -t 0.02 -s 0 -d 2 -p cbr -e 500 -c 2 -i 8 -a 2 -x {0.0 3.1 8 ------- null}
- -t 0.02 -s 0 -d 2 -p cbr -e 500 -c 2 -i 8 -a 2 -x {0.0 3.1 8 ------- null}
h -t 0.02 -s 0 -d 2 -p cbr -e 500 -c 2 -i 8 -a 2 -x {0.0 3.1 -1 ------- null}
+ -t 0.0225 -s 0 -d 2 -p cbr -e 500 -c 2 -i 9 -a 2 -x {0.0 3.1 9 ------- null}
- -t 0.0225 -s 0 -d 2 -p cbr -e 500 -c 2 -i 9 -a 2 -x {0.0 3.1 9 ------- null}
h -t 0.0225 -s 0 -d 2 -p cbr -e 500 -c 2 -i 9 -a 2 -x {0.0 3.1 -1 ------- null}
+ -t 0.025 -s 0 -d 2 -p cbr -e 500 -c 2 -i 10 -a 2 -x {0.0 3.1 10 ------- null}
- -t 0.025 -s 0 -d 2 -p cbr -e 500 -c 2 -i 10 -a 2 -x {0.0 3.1 10 ------- null}
h -t 0.025 -s 0 -d 2 -p cbr -e 500 -c 2 -i 10 -a 2 -x {0.0 3.1 -1 ------- null}
+ -t 0.0275 -s 0 -d 2 -p cbr -e 500 -c 2 -i 11 -a 2 -x {0.0 3.1 11 ------- null}
- -t 0.0275 -s 0 -d 2 -p cbr -e 500 -c 2 -i 11 -a 2 -x {0.0 3.1 11 ------- null}
h -t 0.0275 -s 0 -d 2 -p cbr -e 500 -c 2 -i 11 -a 2 -x {0.0 3.1 -1 ------- null}
+ -t 0.03 -s 0 -d 2 -p cbr -e 500 -c 2 -i 12 -a 2 -x {0.0 3.1 12 ------- null}
- -t 0.03 -s 0 -d 2 -p cbr -e 500 -c 2 -i 12 -a 2 -x {0.0 3.1 12 ------- null}
h -t 0.03 -s 0 -d 2 -p cbr -e 500 -c 2 -i 12 -a 2 -x {0.0 3.1 -1 ------- null}
+ -t 0.0325 -s 0 -d 2 -p cbr -e 500 -c 2 -i 13 -a 2 -x {0.0 3.1 13 ------- null}
- -t 0.0325 -s 0 -d 2 -p cbr -e 500 -c 2 -i 13 -a 2 -x {0.0 3.1 13 ------- null}
h -t 0.0325 -s 0 -d 2 -p cbr -e 500 -c 2 -i 13 -a 2 -x {0.0 3.1 -1 ------- null}
+ -t 0.035 -s 0 -d 2 -p cbr -e 500 -c 2 -i 14 -a 2 -x {0.0 3.1 14 ------- null}
- -t 0.035 -s 0 -d 2 -p cbr -e 500 -c 2 -i 14 -a 2 -x {0.0 3.1 14 ------- null}
h -t 0.035 -s 0 -d 2 -p cbr -e 500 -c 2 -i 14 -a 2 -x {0.0 3.1 -1 ------- null}
+ -t 0.0375 -s 0 -d 2 -p cbr -e 500 -c 2 -i 15 -a 2 -x {0.0 3.1 15 ------- null}
- -t 0.0375 -s 0 -d 2 -p cbr -e 500 -c 2 -i 15 -a 2 -x {0.0 3.1 15 ------- null}
h -t 0.0375 -s 0 -d 2 -p cbr -e 500 -c 2 -i 15 -a 2 -x {0.0 3.1 -1 ------- null}
+ -t 0.04 -s 0 -d 2 -p cbr -e 500 -c 2 -i 16 -a 2 -x {0.0 3.1 16 ------- null}
- -t 0.04 -s 0 -d 2 -p cbr -e 500 -c 2 -i 16 -a 2 -x {0.0 3.1 16 ------- null}
h -t 0.04 -s 0 -d 2 -p cbr -e 500 -c 2 -i 16 -a 2 -x {0.0 3.1 -1 ------- null}
+ -t 0.0425 -s 0 -d 2 -p cbr -e 500 -c 2 -i 17 -a 2 -x {0.0 3.1 17 ------- null}
- -t 0.0425 -s 0 -d 2 -p cbr -e 500 -c 2 -i 17 -a 2 -x {0.0 3.1 17 ------- null}
h -t 0.0425 -s 0 -d 2 -p cbr -e 500 -c 2 -i 17 -a 2 -x {0.0 3.1 -1 ------- null}
+ -t 0.045 -s 0 -d 2 -p cbr -e 500 -c 2 -i 18 -a 2 -x {0.0 3.1 18 ------- null}
- -t 0.045 -s 0 -d 2 -p cbr -e 500 -c 2 -i 18 -a 2 -x {0.0 3.1 18 ------- null}
h -t 0.045 -s 0 -d 2 -p cbr -e 500 -c 2 -i 18 -a 2 -x {0.0 3.1 -1 ------- null}
+ -t 0.0475 -s 0 -d 2 -p cbr -e 500 -c 2 -i 19 -a 2 -x {0.0 3.1 19 ------- null}
- -t 0.0475 -s 0 -d 2 -p cbr -e 500 -c 2 -i 19 -a 2 -x {0.0 3.1 19 ------- null}
h -t 0.0475 -s 0 -d 2 -p cbr -e 500 -c 2 -i 19 -a 2 -x {0.0 3.1 -1 ------- null}
+ -t 0.05 -s 0 -d 2 -p cbr -e 500 -c 2 -i 20 -a 2 -x {0.0 3.1 20 ------- null}
- -t 0.05 -s 0 -d 2 -p cbr -e 500 -c 2 -i 20 -a 2 -x {0.0 3.1 20 ------- null}
h -t 0.05 -s 0 -d 2 -p cbr -e 500 -c 2 -i 20 -a 2 -x {0.0 3.1 -1 ------- null}
+ -t 0.0525 -s 0 -d 2 -p cbr -e 500 -c 2 -i 21 -a 2 -x {0.0 3.1 21 ------- null}
- -t 0.0525 -s 0 -d 2 -p cbr -e 500 -c 2 -i 21 -a 2 -x {0.0 3.1 21 ------- null}
h -t 0.0525 -s 0 -d 2 -p cbr -e 500 -c 2 -i 21 -a 2 -x {0.0 3.1 -1 ------- null}
+ -t 0.055 -s 0 -d 2 -p cbr -e 500 -c 2 -i 22 -a 2 -x {0.0 3.1 22 ------- null}
- -t 0.055 -s 0 -d 2 -p cbr -e 500 -c 2 -i 22 -a 2 -x {0.0 3.1 22 ------- null}
h -t 0.055 -s 0 -d 2 -p cbr -e 500 -c 2 -i 22 -a 2 -x {0.0 3.1 -1 ------- null}
+ -t 0.0575 -s 0 -d 2 -p cbr -e 500 -c 2 -i 23 -a 2 -x {0.0 3.1 23 ------- null}
- -t 0.0575 -s 0 -d 2 -p cbr -e 500 -c 2 -i 23 -a 2 -x {0.0 3.1 23 ------- null}
h -t 0.0575 -s 0 -d 2 -p cbr -e 500 -c 2 -i 23 -a 2 -x {0.0 3.1 -1 ------- null}
+ -t 0.06 -s 0 -d 2 -p cbr -e 500 -c 2 -i 24 -a 2 -x {0.0 3.1 24 ------- null}
- -t 0.06 -s 0 -d 2 -p cbr -e 500 -c 2 -i 24 -a 2 -x {0.0 3.1 24 ------- null}
h -t 0.06 -s 0 -d 2 -p cbr -e 500 -c 2 -i 24 -a 2 -x {0.0 3.1 -1 ------- null}
+ -t 0.0625 -s 0 -d 2 -p cbr -e 500 -c 2 -i 25 -a 2 -x {0.0 3.1 25 ------- null}
- -t 0.0625 -s 0 -d 2 -p cbr -e 500 -c 2 -i 25 -a 2 -x {0.0 3.1 25 ------- null}
h -t 0.0625 -s 0 -d 2 -p cbr -e 500 -c 2 -i 25 -a 2 -x {0.0 3.1 -1 ------- null}
+ -t 0.065 -s 0 -d 2 -p cbr -e 500 -c 2 -i 26 -a 2 -x {0.0 3.1 26 ------- null}
- -t 0.065 -s 0 -d 2 -p cbr -e 500 -c 2 -i 26 -a 2 -x {0.0 3.1 26 ------- null}
h -t 0.065 -s 0 -d 2 -p cbr -e 500 -c 2 -i 26 -a 2 -x {0.0 3.1 -1 ------- null}
+ -t 0.0675 -s 0 -d 2 -p cbr -e 500 -c 2 -i 27 -a 2 -x {0.0 3.1 27 ------- null}
- -t 0.0675 -s 0 -d 2 -p cbr -e 500 -c 2 -i 27 -a 2 -x {0.0 3.1 27 ------- null}
h -t 0.0675 -s 0 -d 2 -p cbr -e 500 -c 2 -i 27 -a 2 -x {0.0 3.1 -1 ------- null}
+ -t 0.07 -s 0 -d 2 -p cbr -e 500 -c 2 -i 28 -a 2 -x {0.0 3.1 28 ------- null}
- -t 0.07 -s 0 -d 2 -p cbr -e 500 -c 2 -i 28 -a 2 -x {0.0 3.1 28 ------- null}
h -t 0.07 -s 0 -d 2 -p cbr -e 500 -c 2 -i 28 -a 2 -x {0.0 3.1 -1 ------- null}
+ -t 0.0725 -s 0 -d 2 -p cbr -e 500 -c 2 -i 29 -a 2 -x {0.0 3.1 29 ------- null}
- -t 0.0725 -s 0 -d 2 -p cbr -e 500 -c 2 -i 29 -a 2 -x {0.0 3.1 29 ------- null}
h -t 0.0725 -s 0 -d 2 -p cbr -e 500 -c 2 -i 29 -a 2 -x {0.0 3.1 -1 ------- null}
+ -t 0.075 -s 0 -d 2 -p cbr -e 500 -c 2 -i 30 -a 2 -x {0.0 3.1 30 ------- null}
- -t 0.075 -s 0 -d 2 -p cbr -e 500 -c 2 -i 30 -a 2 -x {0.0 3.1 30 ------- null}
h -t 0.075 -s 0 -d 2 -p cbr -e 500 -c 2 -i 30 -a 2 -x {0.0 3.1 -1 ------- null}
+ -t 0.0775 -s 0 -d 2 -p cbr -e 500 -c 2 -i 31 -a 2 -x {0.0 3.1 31 ------- null}
- -t 0.0775 -s 0 -d 2 -p cbr -e 500 -c 2 -i 31 -a 2 -x {0.0 3.1 31 ------- null}
h -t 0.0775 -s 0 -d 2 -p cbr -e 500 -c 2 -i 31 -a 2 -x {0.0 3.1 -1 ------- null}
+ -t 0.08 -s 0 -d 2 -p cbr -e 500 -c 2 -i 32 -a 2 -x {0.0 3.1 32 ------- null}
- -t 0.08 -s 0 -d 2 -p cbr -e 500 -c 2 -i 32 -a 2 -x {0.0 3.1 32 ------- null}
h -t 0.08 -s 0 -d 2 -p cbr -e 500 -c 2 -i 32 -a 2 -x {0.0 3.1 -1 ------- null}
+ -t 0.0825 -s 0 -d 2 -p cbr -e 500 -c 2 -i 33 -a 2 -x {0.0 3.1 33 ------- null}
- -t 0.0825 -s 0 -d 2 -p cbr -e 500 -c 2 -i 33 -a 2 -x {0.0 3.1 33 ------- null}
h -t 0.0825 -s 0 -d 2 -p cbr -e 500 -c 2 -i 33 -a 2 -x {0.0 3.1 -1 ------- null}
+ -t 0.085 -s 0 -d 2 -p cbr -e 500 -c 2 -i 34 -a 2 -x {0.0 3.1 34 ------- null}
- -t 0.085 -s 0 -d 2 -p cbr -e 500 -c 2 -i 34 -a 2 -x {0.0 3.1 34 ------- null}
h -t 0.085 -s 0 -d 2 -p cbr -e 500 -c 2 -i 34 -a 2 -x {0.0 3.1 -1 ------- null}
+ -t 0.0875 -s 0 -d 2 -p cbr -e 500 -c 2 -i 35 -a 2 -x {0.0 3.1 35 ------- null}
- -t 0.0875 -s 0 -d 2 -p cbr -e 500 -c 2 -i 35 -a 2 -x {0.0 3.1 35 ------- null}
h -t 0.0875 -s 0 -d 2 -p cbr -e 500 -c 2 -i 35 -a 2 -x {0.0 3.1 -1 ------- null}
+ -t 0.09 -s 0 -d 2 -p cbr -e 500 -c 2 -i 36 -a 2 -x {0.0 3.1 36 ------- null}
- -t 0.09 -s 0 -d 2 -p cbr -e 500 -c 2 -i 36 -a 2 -x {0.0 3.1 36 ------- null}
h -t 0.09 -s 0 -d 2 -p cbr -e 500 -c 2 -i 36 -a 2 -x {0.0 3.1 -1 ------- null}
+ -t 0.0925 -s 0 -d 2 -p cbr -e 500 -c 2 -i 37 -a 2 -x {0.0 3.1 37 ------- null}
- -t 0.0925 -s 0 -d 2 -p cbr -e 500 -c 2 -i 37 -a 2 -x {0.0 3.1 37 ------- null}
h -t 0.0925 -s 0 -d 2 -p cbr -e 500 -c 2 -i 37 -a 2 -x {0.0 3.1 -1 ------- null}
+ -t 0.095 -s 0 -d 2 -p cbr -e 500 -c 2 -i 38 -a 2 -x {0.0 3.1 38 ------- null}
- -t 0.095 -s 0 -d 2 -p cbr -e 500 -c 2 -i 38 -a 2 -x {0.0 3.1 38 ------- null}
h -t 0.095 -s 0 -d 2 -p cbr -e 500 -c 2 -i 38 -a 2 -x {0.0 3.1 -1 ------- null}
+ -t 0.0975 -s 0 -d 2 -p cbr -e 500 -c 2 -i 39 -a 2 -x {0.0 3.1 39 ------- null}
- -t 0.0975 -s 0 -d 2 -p cbr -e 500 -c 2 -i 39 -a 2 -x {0.0 3.1 39 ------- null}
h -t 0.0975 -s 0 -d 2 -p cbr -e 500 -c 2 -i 39 -a 2 -x {0.0 3.1 -1 ------- null}
+ -t 0.1 -s 0 -d 2 -p cbr -e 500 -c 2 -i 40 -a 2 -x {0.0 3.1 40 ------- null}
- -t 0.1 -s 0 -d 2 -p cbr -e 500 -c 2 -i 40 -a 2 -x {0.0 3.1 40 ------- null}
h -t 0.1 -s 0 -d 2 -p cbr -e 500 -c 2 -i 40 -a 2 -x {0.0 3.1 -1 ------- null}
r -t 0.102 -s 0 -d 2 -p cbr -e 500 -c 2 -i 0 -a 2 -x {0.0 3.1 0 ------- null}
+ -t 0.102 -s 2 -d 3 -p cbr -e 500 -c 2 -i 0 -a 2 -x {0.0 3.1 0 ------- null}
- -t 0.102 -s 2 -d 3 -p cbr -e 500 -c 2 -i 0 -a 2 -x {0.0 3.1 0 ------- null}
h -t 0.102 -s 2 -d 3 -p cbr -e 500 -c 2 -i 0 -a 2 -x {0.0 3.1 -1 ------- null}
+ -t 0.1025 -s 0 -d 2 -p cbr -e 500 -c 2 -i 41 -a 2 -x {0.0 3.1 41 ------- null}
- -t 0.1025 -s 0 -d 2 -p cbr -e 500 -c 2 -i 41 -a 2 -x {0.0 3.1 41 ------- null}
h -t 0.1025 -s 0 -d 2 -p cbr -e 500 -c 2 -i 41 -a 2 -x {0.0 3.1 -1 ------- null}
r -t 0.1045 -s 0 -d 2 -p cbr -e 500 -c 2 -i 1 -a 2 -x {0.0 3.1 1 ------- null}
+ -t 0.1045 -s 2 -d 3 -p cbr -e 500 -c 2 -i 1 -a 2 -x {0.0 3.1 1 ------- null}
- -t 0.1045 -s 2 -d 3 -p cbr -e 500 -c 2 -i 1 -a 2 -x {0.0 3.1 1 ------- null}
h -t 0.1045 -s 2 -d 3 -p cbr -e 500 -c 2 -i 1 -a 2 -x {0.0 3.1 -1 ------- null}
+ -t 0.105 -s 0 -d 2 -p cbr -e 500 -c 2 -i 42 -a 2 -x {0.0 3.1 42 ------- null}
- -t 0.105 -s 0 -d 2 -p cbr -e 500 -c 2 -i 42 -a 2 -x {0.0 3.1 42 ------- null}
h -t 0.105 -s 0 -d 2 -p cbr -e 500 -c 2 -i 42 -a 2 -x {0.0 3.1 -1 ------- null}
r -t 0.107 -s 0 -d 2 -p cbr -e 500 -c 2 -i 2 -a 2 -x {0.0 3.1 2 ------- null}
+ -t 0.107 -s 2 -d 3 -p cbr -e 500 -c 2 -i 2 -a 2 -x {0.0 3.1 2 ------- null}
- -t 0.107 -s 2 -d 3 -p cbr -e 500 -c 2 -i 2 -a 2 -x {0.0 3.1 2 ------- null}
h -t 0.107 -s 2 -d 3 -p cbr -e 500 -c 2 -i 2 -a 2 -x {0.0 3.1 -1 ------- null}
+ -t 0.1075 -s 0 -d 2 -p cbr -e 500 -c 2 -i 43 -a 2 -x {0.0 3.1 43 ------- null}
- -t 0.1075 -s 0 -d 2 -p cbr -e 500 -c 2 -i 43 -a 2 -x {0.0 3.1 43 ------- null}
h -t 0.1075 -s 0 -d 2 -p cbr -e 500 -c 2 -i 43 -a 2 -x {0.0 3.1 -1 ------- null}
r -t 0.1095 -s 0 -d 2 -p cbr -e 500 -c 2 -i 3 -a 2 -x {0.0 3.1 3 ------- null}
+ -t 0.1095 -s 2 -d 3 -p cbr -e 500 -c 2 -i 3 -a 2 -x {0.0 3.1 3 ------- null}
- -t 0.1095 -s 2 -d 3 -p cbr -e 500 -c 2 -i 3 -a 2 -x {0.0 3.1 3 ------- null}
h -t 0.1095 -s 2 -d 3 -p cbr -e 500 -c 2 -i 3 -a 2 -x {0.0 3.1 -1 ------- null}
+ -t 0.11 -s 0 -d 2 -p cbr -e 500 -c 2 -i 44 -a 2 -x {0.0 3.1 44 ------- null}
- -t 0.11 -s 0 -d 2 -p cbr -e 500 -c 2 -i 44 -a 2 -x {0.0 3.1 44 ------- null}
h -t 0.11 -s 0 -d 2 -p cbr -e 500 -c 2 -i 44 -a 2 -x {0.0 3.1 -1 ------- null}
r -t 0.112 -s 0 -d 2 -p cbr -e 500 -c 2 -i 4 -a 2 -x {0.0 3.1 4 ------- null}
+ -t 0.112 -s 2 -d 3 -p cbr -e 500 -c 2 -i 4 -a 2 -x {0.0 3.1 4 ------- null}
- -t 0.112 -s 2 -d 3 -p cbr -e 500 -c 2 -i 4 -a 2 -x {0.0 3.1 4 ------- null}
h -t 0.112 -s 2 -d 3 -p cbr -e 500 -c 2 -i 4 -a 2 -x {0.0 3.1 -1 ------- null}
+ -t 0.1125 -s 0 -d 2 -p cbr -e 500 -c 2 -i 45 -a 2 -x {0.0 3.1 45 ------- null}
- -t 0.1125 -s 0 -d 2 -p cbr -e 500 -c 2 -i 45 -a 2 -x {0.0 3.1 45 ------- null}
h -t 0.1125 -s 0 -d 2 -p cbr -e 500 -c 2 -i 45 -a 2 -x {0.0 3.1 -1 ------- null}
r -t 0.1145 -s 0 -d 2 -p cbr -e 500 -c 2 -i 5 -a 2 -x {0.0 3.1 5 ------- null}
+ -t 0.1145 -s 2 -d 3 -p cbr -e 500 -c 2 -i 5 -a 2 -x {0.0 3.1 5 ------- null}
- -t 0.1145 -s 2 -d 3 -p cbr -e 500 -c 2 -i 5 -a 2 -x {0.0 3.1 5 ------- null}
h -t 0.1145 -s 2 -d 3 -p cbr -e 500 -c 2 -i 5 -a 2 -x {0.0 3.1 -1 ------- null}
+ -t 0.115 -s 0 -d 2 -p cbr -e 500 -c 2 -i 46 -a 2 -x {0.0 3.1 46 ------- null}
- -t 0.115 -s 0 -d 2 -p cbr -e 500 -c 2 -i 46 -a 2 -x {0.0 3.1 46 ------- null}
h -t 0.115 -s 0 -d 2 -p cbr -e 500 -c 2 -i 46 -a 2 -x {0.0 3.1 -1 ------- null}
r -t 0.117 -s 0 -d 2 -p cbr -e 500 -c 2 -i 6 -a 2 -x {0.0 3.1 6 ------- null}
+ -t 0.117 -s 2 -d 3 -p cbr -e 500 -c 2 -i 6 -a 2 -x {0.0 3.1 6 ------- null}
- -t 0.117 -s 2 -d 3 -p cbr -e 500 -c 2 -i 6 -a 2 -x {0.0 3.1 6 ------- null}
h -t 0.117 -s 2 -d 3 -p cbr -e 500 -c 2 -i 6 -a 2 -x {0.0 3.1 -1 ------- null}
+ -t 0.1175 -s 0 -d 2 -p cbr -e 500 -c 2 -i 47 -a 2 -x {0.0 3.1 47 ------- null}
- -t 0.1175 -s 0 -d 2 -p cbr -e 500 -c 2 -i 47 -a 2 -x {0.0 3.1 47 ------- null}
h -t 0.1175 -s 0 -d 2 -p cbr -e 500 -c 2 -i 47 -a 2 -x {0.0 3.1 -1 ------- null}
r -t 0.1195 -s 0 -d 2 -p cbr -e 500 -c 2 -i 7 -a 2 -x {0.0 3.1 7 ------- null}
+ -t 0.1195 -s 2 -d 3 -p cbr -e 500 -c 2 -i 7 -a 2 -x {0.0 3.1 7 ------- null}
- -t 0.1195 -s 2 -d 3 -p cbr -e 500 -c 2 -i 7 -a 2 -x {0.0 3.1 7 ------- null}
h -t 0.1195 -s 2 -d 3 -p cbr -e 500 -c 2 -i 7 -a 2 -x {0.0 3.1 -1 ------- null}
+ -t 0.12 -s 0 -d 2 -p cbr -e 500 -c 2 -i 48 -a 2 -x {0.0 3.1 48 ------- null}
- -t 0.12 -s 0 -d 2 -p cbr -e 500 -c 2 -i 48 -a 2 -x {0.0 3.1 48 ------- null}
h -t 0.12 -s 0 -d 2 -p cbr -e 500 -c 2 -i 48 -a 2 -x {0.0 3.1 -1 ------- null}
r -t 0.122 -s 0 -d 2 -p cbr -e 500 -c 2 -i 8 -a 2 -x {0.0 3.1 8 ------- null}
+ -t 0.122 -s 2 -d 3 -p cbr -e 500 -c 2 -i 8 -a 2 -x {0.0 3.1 8 ------- null}
- -t 0.122 -s 2 -d 3 -p cbr -e 500 -c 2 -i 8 -a 2 -x {0.0 3.1 8 ------- null}
h -t 0.122 -s 2 -d 3 -p cbr -e 500 -c 2 -i 8 -a 2 -x {0.0 3.1 -1 ------- null}
+ -t 0.1225 -s 0 -d 2 -p cbr -e 500 -c 2 -i 49 -a 2 -x {0.0 3.1 49 ------- null}
- -t 0.1225 -s 0 -d 2 -p cbr -e 500 -c 2 -i 49 -a 2 -x {0.0 3.1 49 ------- null}
h -t 0.1225 -s 0 -d 2 -p cbr -e 500 -c 2 -i 49 -a 2 -x {0.0 3.1 -1 ------- null}
r -t 0.1245 -s 0 -d 2 -p cbr -e 500 -c 2 -i 9 -a 2 -x {0.0 3.1 9 ------- null}
+ -t 0.1245 -s 2 -d 3 -p cbr -e 500 -c 2 -i 9 -a 2 -x {0.0 3.1 9 ------- null}
- -t 0.1245 -s 2 -d 3 -p cbr -e 500 -c 2 -i 9 -a 2 -x {0.0 3.1 9 ------- null}
h -t 0.1245 -s 2 -d 3 -p cbr -e 500 -c 2 -i 9 -a 2 -x {0.0 3.1 -1 ------- null}
+ -t 0.125 -s 0 -d 2 -p cbr -e 500 -c 2 -i 50 -a 2 -x {0.0 3.1 50 ------- null}
- -t 0.125 -s 0 -d 2 -p cbr -e 500 -c 2 -i 50 -a 2 -x {0.0 3.1 50 ------- null}
h -t 0.125 -s 0 -d 2 -p cbr -e 500 -c 2 -i 50 -a 2 -x {0.0 3.1 -1 ------- null}
r -t 0.127 -s 0 -d 2 -p cbr -e 500 -c 2 -i 10 -a 2 -x {0.0 3.1 10 ------- null}
+ -t 0.127 -s 2 -d 3 -p cbr -e 500 -c 2 -i 10 -a 2 -x {0.0 3.1 10 ------- null}
- -t 0.127 -s 2 -d 3 -p cbr -e 500 -c 2 -i 10 -a 2 -x {0.0 3.1 10 ------- null}
h -t 0.127 -s 2 -d 3 -p cbr -e 500 -c 2 -i 10 -a 2 -x {0.0 3.1 -1 ------- null}
+ -t 0.1275 -s 0 -d 2 -p cbr -e 500 -c 2 -i 51 -a 2 -x {0.0 3.1 51 ------- null}
- -t 0.1275 -s 0 -d 2 -p cbr -e 500 -c 2 -i 51 -a 2 -x {0.0 3.1 51 ------- null}
h -t 0.1275 -s 0 -d 2 -p cbr -e 500 -c 2 -i 51 -a 2 -x {0.0 3.1 -1 ------- null}
r -t 0.1295 -s 0 -d 2 -p cbr -e 500 -c 2 -i 11 -a 2 -x {0.0 3.1 11 ------- null}
+ -t 0.1295 -s 2 -d 3 -p cbr -e 500 -c 2 -i 11 -a 2 -x {0.0 3.1 11 ------- null}
- -t 0.1295 -s 2 -d 3 -p cbr -e 500 -c 2 -i 11 -a 2 -x {0.0 3.1 11 ------- null}
h -t 0.1295 -s 2 -d 3 -p cbr -e 500 -c 2 -i 11 -a 2 -x {0.0 3.1 -1 ------- null}
+ -t 0.13 -s 0 -d 2 -p cbr -e 500 -c 2 -i 52 -a 2 -x {0.0 3.1 52 ------- null}
- -t 0.13 -s 0 -d 2 -p cbr -e 500 -c 2 -i 52 -a 2 -x {0.0 3.1 52 ------- null}
h -t 0.13 -s 0 -d 2 -p cbr -e 500 -c 2 -i 52 -a 2 -x {0.0 3.1 -1 ------- null}
r -t 0.132 -s 0 -d 2 -p cbr -e 500 -c 2 -i 12 -a 2 -x {0.0 3.1 12 ------- null}
+ -t 0.132 -s 2 -d 3 -p cbr -e 500 -c 2 -i 12 -a 2 -x {0.0 3.1 12 ------- null}
- -t 0.132 -s 2 -d 3 -p cbr -e 500 -c 2 -i 12 -a 2 -x {0.0 3.1 12 ------- null}
h -t 0.132 -s 2 -d 3 -p cbr -e 500 -c 2 -i 12 -a 2 -x {0.0 3.1 -1 ------- null}
+ -t 0.1325 -s 0 -d 2 -p cbr -e 500 -c 2 -i 53 -a 2 -x {0.0 3.1 53 ------- null}
- -t 0.1325 -s 0 -d 2 -p cbr -e 500 -c 2 -i 53 -a 2 -x {0.0 3.1 53 ------- null}
h -t 0.1325 -s 0 -d 2 -p cbr -e 500 -c 2 -i 53 -a 2 -x {0.0 3.1 -1 ------- null}
r -t 0.1345 -s 0 -d 2 -p cbr -e 500 -c 2 -i 13 -a 2 -x {0.0 3.1 13 ------- null}
+ -t 0.1345 -s 2 -d 3 -p cbr -e 500 -c 2 -i 13 -a 2 -x {0.0 3.1 13 ------- null}
- -t 0.1345 -s 2 -d 3 -p cbr -e 500 -c 2 -i 13 -a 2 -x {0.0 3.1 13 ------- null}
h -t 0.1345 -s 2 -d 3 -p cbr -e 500 -c 2 -i 13 -a 2 -x {0.0 3.1 -1 ------- null}
+ -t 0.135 -s 0 -d 2 -p cbr -e 500 -c 2 -i 54 -a 2 -x {0.0 3.1 54 ------- null}
- -t 0.135 -s 0 -d 2 -p cbr -e 500 -c 2 -i 54 -a 2 -x {0.0 3.1 54 ------- null}
h -t 0.135 -s 0 -d 2 -p cbr -e 500 -c 2 -i 54 -a 2 -x {0.0 3.1 -1 ------- null}
r -t 0.137 -s 0 -d 2 -p cbr -e 500 -c 2 -i 14 -a 2 -x {0.0 3.1 14 ------- null}
+ -t 0.137 -s 2 -d 3 -p cbr -e 500 -c 2 -i 14 -a 2 -x {0.0 3.1 14 ------- null}
- -t 0.137 -s 2 -d 3 -p cbr -e 500 -c 2 -i 14 -a 2 -x {0.0 3.1 14 ------- null}
h -t 0.137 -s 2 -d 3 -p cbr -e 500 -c 2 -i 14 -a 2 -x {0.0 3.1 -1 ------- null}
+ -t 0.1375 -s 0 -d 2 -p cbr -e 500 -c 2 -i 55 -a 2 -x {0.0 3.1 55 ------- null}
- -t 0.1375 -s 0 -d 2 -p cbr -e 500 -c 2 -i 55 -a 2 -x {0.0 3.1 55 ------- null}
h -t 0.1375 -s 0 -d 2 -p cbr -e 500 -c 2 -i 55 -a 2 -x {0.0 3.1 -1 ------- null}
r -t 0.1395 -s 0 -d 2 -p cbr -e 500 -c 2 -i 15 -a 2 -x {0.0 3.1 15 ------- null}
+ -t 0.1395 -s 2 -d 3 -p cbr -e 500 -c 2 -i 15 -a 2 -x {0.0 3.1 15 ------- null}
- -t 0.1395 -s 2 -d 3 -p cbr -e 500 -c 2 -i 15 -a 2 -x {0.0 3.1 15 ------- null}
h -t 0.1395 -s 2 -d 3 -p cbr -e 500 -c 2 -i 15 -a 2 -x {0.0 3.1 -1 ------- null}
+ -t 0.14 -s 0 -d 2 -p cbr -e 500 -c 2 -i 56 -a 2 -x {0.0 3.1 56 ------- null}
- -t 0.14 -s 0 -d 2 -p cbr -e 500 -c 2 -i 56 -a 2 -x {0.0 3.1 56 ------- null}
h -t 0.14 -s 0 -d 2 -p cbr -e 500 -c 2 -i 56 -a 2 -x {0.0 3.1 -1 ------- null}
r -t 0.142 -s 0 -d 2 -p cbr -e 500 -c 2 -i 16 -a 2 -x {0.0 3.1 16 ------- null}
+ -t 0.142 -s 2 -d 3 -p cbr -e 500 -c 2 -i 16 -a 2 -x {0.0 3.1 16 ------- null}
- -t 0.142 -s 2 -d 3 -p cbr -e 500 -c 2 -i 16 -a 2 -x {0.0 3.1 16 ------- null}
h -t 0.142 -s 2 -d 3 -p cbr -e 500 -c 2 -i 16 -a 2 -x {0.0 3.1 -1 ------- null}
+ -t 0.1425 -s 0 -d 2 -p cbr -e 500 -c 2 -i 57 -a 2 -x {0.0 3.1 57 ------- null}
- -t 0.1425 -s 0 -d 2 -p cbr -e 500 -c 2 -i 57 -a 2 -x {0.0 3.1 57 ------- null}
h -t 0.1425 -s 0 -d 2 -p cbr -e 500 -c 2 -i 57 -a 2 -x {0.0 3.1 -1 ------- null}
r -t 0.1445 -s 0 -d 2 -p cbr -e 500 -c 2 -i 17 -a 2 -x {0.0 3.1 17 ------- null}
+ -t 0.1445 -s 2 -d 3 -p cbr -e 500 -c 2 -i 17 -a 2 -x {0.0 3.1 17 ------- null}
- -t 0.1445 -s 2 -d 3 -p cbr -e 500 -c 2 -i 17 -a 2 -x {0.0 3.1 17 ------- null}
h -t 0.1445 -s 2 -d 3 -p cbr -e 500 -c 2 -i 17 -a 2 -x {0.0 3.1 -1 ------- null}
+ -t 0.145 -s 0 -d 2 -p cbr -e 500 -c 2 -i 58 -a 2 -x {0.0 3.1 58 ------- null}
- -t 0.145 -s 0 -d 2 -p cbr -e 500 -c 2 -i 58 -a 2 -x {0.0 3.1 58 ------- null}
h -t 0.145 -s 0 -d 2 -p cbr -e 500 -c 2 -i 58 -a 2 -x {0.0 3.1 -1 ------- null}
r -t 0.147 -s 0 -d 2 -p cbr -e 500 -c 2 -i 18 -a 2 -x {0.0 3.1 18 ------- null}
+ -t 0.147 -s 2 -d 3 -p cbr -e 500 -c 2 -i 18 -a 2 -x {0.0 3.1 18 ------- null}
- -t 0.147 -s 2 -d 3 -p cbr -e 500 -c 2 -i 18 -a 2 -x {0.0 3.1 18 ------- null}
h -t 0.147 -s 2 -d 3 -p cbr -e 500 -c 2 -i 18 -a 2 -x {0.0 3.1 -1 ------- null}
+ -t 0.1475 -s 0 -d 2 -p cbr -e 500 -c 2 -i 59 -a 2 -x {0.0 3.1 59 ------- null}
- -t 0.1475 -s 0 -d 2 -p cbr -e 500 -c 2 -i 59 -a 2 -x {0.0 3.1 59 ------- null}
h -t 0.1475 -s 0 -d 2 -p cbr -e 500 -c 2 -i 59 -a 2 -x {0.0 3.1 -1 ------- null}
r -t 0.1495 -s 0 -d 2 -p cbr -e 500 -c 2 -i 19 -a 2 -x {0.0 3.1 19 ------- null}
+ -t 0.1495 -s 2 -d 3 -p cbr -e 500 -c 2 -i 19 -a 2 -x {0.0 3.1 19 ------- null}
- -t 0.1495 -s 2 -d 3 -p cbr -e 500 -c 2 -i 19 -a 2 -x {0.0 3.1 19 ------- null}
h -t 0.1495 -s 2 -d 3 -p cbr -e 500 -c 2 -i 19 -a 2 -x {0.0 3.1 -1 ------- null}
+ -t 0.15 -s 0 -d 2 -p cbr -e 500 -c 2 -i 60 -a 2 -x {0.0 3.1 60 ------- null}
- -t 0.15 -s 0 -d 2 -p cbr -e 500 -c 2 -i 60 -a 2 -x {0.0 3.1 60 ------- null}
h -t 0.15 -s 0 -d 2 -p cbr -e 500 -c 2 -i 60 -a 2 -x {0.0 3.1 -1 ------- null}
r -t 0.152 -s 0 -d 2 -p cbr -e 500 -c 2 -i 20 -a 2 -x {0.0 3.1 20 ------- null}
+ -t 0.152 -s 2 -d 3 -p cbr -e 500 -c 2 -i 20 -a 2 -x {0.0 3.1 20 ------- null}
- -t 0.152 -s 2 -d 3 -p cbr -e 500 -c 2 -i 20 -a 2 -x {0.0 3.1 20 ------- null}
h -t 0.152 -s 2 -d 3 -p cbr -e 500 -c 2 -i 20 -a 2 -x {0.0 3.1 -1 ------- null}
+ -t 0.1525 -s 0 -d 2 -p cbr -e 500 -c 2 -i 61 -a 2 -x {0.0 3.1 61 ------- null}
- -t 0.1525 -s 0 -d 2 -p cbr -e 500 -c 2 -i 61 -a 2 -x {0.0 3.1 61 ------- null}
h -t 0.1525 -s 0 -d 2 -p cbr -e 500 -c 2 -i 61 -a 2 -x {0.0 3.1 -1 ------- null}
r -t 0.1545 -s 0 -d 2 -p cbr -e 500 -c 2 -i 21 -a 2 -x {0.0 3.1 21 ------- null}
+ -t 0.1545 -s 2 -d 3 -p cbr -e 500 -c 2 -i 21 -a 2 -x {0.0 3.1 21 ------- null}
- -t 0.1545 -s 2 -d 3 -p cbr -e 500 -c 2 -i 21 -a 2 -x {0.0 3.1 21 ------- null}
h -t 0.1545 -s 2 -d 3 -p cbr -e 500 -c 2 -i 21 -a 2 -x {0.0 3.1 -1 ------- null}
+ -t 0.155 -s 0 -d 2 -p cbr -e 500 -c 2 -i 62 -a 2 -x {0.0 3.1 62 ------- null}
- -t 0.155 -s 0 -d 2 -p cbr -e 500 -c 2 -i 62 -a 2 -x {0.0 3.1 62 ------- null}
h -t 0.155 -s 0 -d 2 -p cbr -e 500 -c 2 -i 62 -a 2 -x {0.0 3.1 -1 ------- null}
r -t 0.157 -s 0 -d 2 -p cbr -e 500 -c 2 -i 22 -a 2 -x {0.0 3.1 22 ------- null}
+ -t 0.157 -s 2 -d 3 -p cbr -e 500 -c 2 -i 22 -a 2 -x {0.0 3.1 22 ------- null}
- -t 0.157 -s 2 -d 3 -p cbr -e 500 -c 2 -i 22 -a 2 -x {0.0 3.1 22 ------- null}
h -t 0.157 -s 2 -d 3 -p cbr -e 500 -c 2 -i 22 -a 2 -x {0.0 3.1 -1 ------- null}
+ -t 0.1575 -s 0 -d 2 -p cbr -e 500 -c 2 -i 63 -a 2 -x {0.0 3.1 63 ------- null}
- -t 0.1575 -s 0 -d 2 -p cbr -e 500 -c 2 -i 63 -a 2 -x {0.0 3.1 63 ------- null}
h -t 0.1575 -s 0 -d 2 -p cbr -e 500 -c 2 -i 63 -a 2 -x {0.0 3.1 -1 ------- null}
r -t 0.1595 -s 0 -d 2 -p cbr -e 500 -c 2 -i 23 -a 2 -x {0.0 3.1 23 ------- null}
+ -t 0.1595 -s 2 -d 3 -p cbr -e 500 -c 2 -i 23 -a 2 -x {0.0 3.1 23 ------- null}
- -t 0.1595 -s 2 -d 3 -p cbr -e 500 -c 2 -i 23 -a 2 -x {0.0 3.1 23 ------- null}
h -t 0.1595 -s 2 -d 3 -p cbr -e 500 -c 2 -i 23 -a 2 -x {0.0 3.1 -1 ------- null}
+ -t 0.16 -s 0 -d 2 -p cbr -e 500 -c 2 -i 64 -a 2 -x {0.0 3.1 64 ------- null}
- -t 0.16 -s 0 -d 2 -p cbr -e 500 -c 2 -i 64 -a 2 -x {0.0 3.1 64 ------- null}
h -t 0.16 -s 0 -d 2 -p cbr -e 500 -c 2 -i 64 -a 2 -x {0.0 3.1 -1 ------- null}
r -t 0.162 -s 0 -d 2 -p cbr -e 500 -c 2 -i 24 -a 2 -x {0.0 3.1 24 ------- null}
+ -t 0.162 -s 2 -d 3 -p cbr -e 500 -c 2 -i 24 -a 2 -x {0.0 3.1 24 ------- null}
- -t 0.162 -s 2 -d 3 -p cbr -e 500 -c 2 -i 24 -a 2 -x {0.0 3.1 24 ------- null}
h -t 0.162 -s 2 -d 3 -p cbr -e 500 -c 2 -i 24 -a 2 -x {0.0 3.1 -1 ------- null}
+ -t 0.1625 -s 0 -d 2 -p cbr -e 500 -c 2 -i 65 -a 2 -x {0.0 3.1 65 ------- null}
- -t 0.1625 -s 0 -d 2 -p cbr -e 500 -c 2 -i 65 -a 2 -x {0.0 3.1 65 ------- null}
h -t 0.1625 -s 0 -d 2 -p cbr -e 500 -c 2 -i 65 -a 2 -x {0.0 3.1 -1 ------- null}
r -t 0.1645 -s 0 -d 2 -p cbr -e 500 -c 2 -i 25 -a 2 -x {0.0 3.1 25 ------- null}
+ -t 0.1645 -s 2 -d 3 -p cbr -e 500 -c 2 -i 25 -a 2 -x {0.0 3.1 25 ------- null}
- -t 0.1645 -s 2 -d 3 -p cbr -e 500 -c 2 -i 25 -a 2 -x {0.0 3.1 25 ------- null}
h -t 0.1645 -s 2 -d 3 -p cbr -e 500 -c 2 -i 25 -a 2 -x {0.0 3.1 -1 ------- null}
+ -t 0.165 -s 0 -d 2 -p cbr -e 500 -c 2 -i 66 -a 2 -x {0.0 3.1 66 ------- null}
- -t 0.165 -s 0 -d 2 -p cbr -e 500 -c 2 -i 66 -a 2 -x {0.0 3.1 66 ------- null}
h -t 0.165 -s 0 -d 2 -p cbr -e 500 -c 2 -i 66 -a 2 -x {0.0 3.1 -1 ------- null}
r -t 0.167 -s 0 -d 2 -p cbr -e 500 -c 2 -i 26 -a 2 -x {0.0 3.1 26 ------- null}
+ -t 0.167 -s 2 -d 3 -p cbr -e 500 -c 2 -i 26 -a 2 -x {0.0 3.1 26 ------- null}
- -t 0.167 -s 2 -d 3 -p cbr -e 500 -c 2 -i 26 -a 2 -x {0.0 3.1 26 ------- null}
h -t 0.167 -s 2 -d 3 -p cbr -e 500 -c 2 -i 26 -a 2 -x {0.0 3.1 -1 ------- null}
+ -t 0.1675 -s 0 -d 2 -p cbr -e 500 -c 2 -i 67 -a 2 -x {0.0 3.1 67 ------- null}
- -t 0.1675 -s 0 -d 2 -p cbr -e 500 -c 2 -i 67 -a 2 -x {0.0 3.1 67 ------- null}
h -t 0.1675 -s 0 -d 2 -p cbr -e 500 -c 2 -i 67 -a 2 -x {0.0 3.1 -1 ------- null}
r -t 0.1695 -s 0 -d 2 -p cbr -e 500 -c 2 -i 27 -a 2 -x {0.0 3.1 27 ------- null}
+ -t 0.1695 -s 2 -d 3 -p cbr -e 500 -c 2 -i 27 -a 2 -x {0.0 3.1 27 ------- null}
- -t 0.1695 -s 2 -d 3 -p cbr -e 500 -c 2 -i 27 -a 2 -x {0.0 3.1 27 ------- null}
h -t 0.1695 -s 2 -d 3 -p cbr -e 500 -c 2 -i 27 -a 2 -x {0.0 3.1 -1 ------- null}
+ -t 0.17 -s 0 -d 2 -p cbr -e 500 -c 2 -i 68 -a 2 -x {0.0 3.1 68 ------- null}
- -t 0.17 -s 0 -d 2 -p cbr -e 500 -c 2 -i 68 -a 2 -x {0.0 3.1 68 ------- null}
h -t 0.17 -s 0 -d 2 -p cbr -e 500 -c 2 -i 68 -a 2 -x {0.0 3.1 -1 ------- null}
r -t 0.172 -s 0 -d 2 -p cbr -e 500 -c 2 -i 28 -a 2 -x {0.0 3.1 28 ------- null}
+ -t 0.172 -s 2 -d 3 -p cbr -e 500 -c 2 -i 28 -a 2 -x {0.0 3.1 28 ------- null}
- -t 0.172 -s 2 -d 3 -p cbr -e 500 -c 2 -i 28 -a 2 -x {0.0 3.1 28 ------- null}
h -t 0.172 -s 2 -d 3 -p cbr -e 500 -c 2 -i 28 -a 2 -x {0.0 3.1 -1 ------- null}
+ -t 0.1725 -s 0 -d 2 -p cbr -e 500 -c 2 -i 69 -a 2 -x {0.0 3.1 69 ------- null}
- -t 0.1725 -s 0 -d 2 -p cbr -e 500 -c 2 -i 69 -a 2 -x {0.0 3.1 69 ------- null}
h -t 0.1725 -s 0 -d 2 -p cbr -e 500 -c 2 -i 69 -a 2 -x {0.0 3.1 -1 ------- null}
r -t 0.1745 -s 0 -d 2 -p cbr -e 500 -c 2 -i 29 -a 2 -x {0.0 3.1 29 ------- null}
+ -t 0.1745 -s 2 -d 3 -p cbr -e 500 -c 2 -i 29 -a 2 -x {0.0 3.1 29 ------- null}
- -t 0.1745 -s 2 -d 3 -p cbr -e 500 -c 2 -i 29 -a 2 -x {0.0 3.1 29 ------- null}
h -t 0.1745 -s 2 -d 3 -p cbr -e 500 -c 2 -i 29 -a 2 -x {0.0 3.1 -1 ------- null}
+ -t 0.175 -s 0 -d 2 -p cbr -e 500 -c 2 -i 70 -a 2 -x {0.0 3.1 70 ------- null}
- -t 0.175 -s 0 -d 2 -p cbr -e 500 -c 2 -i 70 -a 2 -x {0.0 3.1 70 ------- null}
h -t 0.175 -s 0 -d 2 -p cbr -e 500 -c 2 -i 70 -a 2 -x {0.0 3.1 -1 ------- null}
r -t 0.177 -s 0 -d 2 -p cbr -e 500 -c 2 -i 30 -a 2 -x {0.0 3.1 30 ------- null}
+ -t 0.177 -s 2 -d 3 -p cbr -e 500 -c 2 -i 30 -a 2 -x {0.0 3.1 30 ------- null}
- -t 0.177 -s 2 -d 3 -p cbr -e 500 -c 2 -i 30 -a 2 -x {0.0 3.1 30 ------- null}
h -t 0.177 -s 2 -d 3 -p cbr -e 500 -c 2 -i 30 -a 2 -x {0.0 3.1 -1 ------- null}
+ -t 0.1775 -s 0 -d 2 -p cbr -e 500 -c 2 -i 71 -a 2 -x {0.0 3.1 71 ------- null}
- -t 0.1775 -s 0 -d 2 -p cbr -e 500 -c 2 -i 71 -a 2 -x {0.0 3.1 71 ------- null}
h -t 0.1775 -s 0 -d 2 -p cbr -e 500 -c 2 -i 71 -a 2 -x {0.0 3.1 -1 ------- null}
r -t 0.1795 -s 0 -d 2 -p cbr -e 500 -c 2 -i 31 -a 2 -x {0.0 3.1 31 ------- null}
+ -t 0.1795 -s 2 -d 3 -p cbr -e 500 -c 2 -i 31 -a 2 -x {0.0 3.1 31 ------- null}
- -t 0.1795 -s 2 -d 3 -p cbr -e 500 -c 2 -i 31 -a 2 -x {0.0 3.1 31 ------- null}
h -t 0.1795 -s 2 -d 3 -p cbr -e 500 -c 2 -i 31 -a 2 -x {0.0 3.1 -1 ------- null}
+ -t 0.18 -s 0 -d 2 -p cbr -e 500 -c 2 -i 72 -a 2 -x {0.0 3.1 72 ------- null}
- -t 0.18 -s 0 -d 2 -p cbr -e 500 -c 2 -i 72 -a 2 -x {0.0 3.1 72 ------- null}
h -t 0.18 -s 0 -d 2 -p cbr -e 500 -c 2 -i 72 -a 2 -x {0.0 3.1 -1 ------- null}
r -t 0.182 -s 0 -d 2 -p cbr -e 500 -c 2 -i 32 -a 2 -x {0.0 3.1 32 ------- null}
+ -t 0.182 -s 2 -d 3 -p cbr -e 500 -c 2 -i 32 -a 2 -x {0.0 3.1 32 ------- null}
- -t 0.182 -s 2 -d 3 -p cbr -e 500 -c 2 -i 32 -a 2 -x {0.0 3.1 32 ------- null}
h -t 0.182 -s 2 -d 3 -p cbr -e 500 -c 2 -i 32 -a 2 -x {0.0 3.1 -1 ------- null}
+ -t 0.1825 -s 0 -d 2 -p cbr -e 500 -c 2 -i 73 -a 2 -x {0.0 3.1 73 ------- null}
- -t 0.1825 -s 0 -d 2 -p cbr -e 500 -c 2 -i 73 -a 2 -x {0.0 3.1 73 ------- null}
h -t 0.1825 -s 0 -d 2 -p cbr -e 500 -c 2 -i 73 -a 2 -x {0.0 3.1 -1 ------- null}
r -t 0.1845 -s 0 -d 2 -p cbr -e 500 -c 2 -i 33 -a 2 -x {0.0 3.1 33 ------- null}
+ -t 0.1845 -s 2 -d 3 -p cbr -e 500 -c 2 -i 33 -a 2 -x {0.0 3.1 33 ------- null}
- -t 0.1845 -s 2 -d 3 -p cbr -e 500 -c 2 -i 33 -a 2 -x {0.0 3.1 33 ------- null}
h -t 0.1845 -s 2 -d 3 -p cbr -e 500 -c 2 -i 33 -a 2 -x {0.0 3.1 -1 ------- null}
+ -t 0.185 -s 0 -d 2 -p cbr -e 500 -c 2 -i 74 -a 2 -x {0.0 3.1 74 ------- null}
- -t 0.185 -s 0 -d 2 -p cbr -e 500 -c 2 -i 74 -a 2 -x {0.0 3.1 74 ------- null}
h -t 0.185 -s 0 -d 2 -p cbr -e 500 -c 2 -i 74 -a 2 -x {0.0 3.1 -1 ------- null}
r -t 0.187 -s 0 -d 2 -p cbr -e 500 -c 2 -i 34 -a 2 -x {0.0 3.1 34 ------- null}
+ -t 0.187 -s 2 -d 3 -p cbr -e 500 -c 2 -i 34 -a 2 -x {0.0 3.1 34 ------- null}
- -t 0.187 -s 2 -d 3 -p cbr -e 500 -c 2 -i 34 -a 2 -x {0.0 3.1 34 ------- null}
h -t 0.187 -s 2 -d 3 -p cbr -e 500 -c 2 -i 34 -a 2 -x {0.0 3.1 -1 ------- null}
+ -t 0.1875 -s 0 -d 2 -p cbr -e 500 -c 2 -i 75 -a 2 -x {0.0 3.1 75 ------- null}
- -t 0.1875 -s 0 -d 2 -p cbr -e 500 -c 2 -i 75 -a 2 -x {0.0 3.1 75 ------- null}
h -t 0.1875 -s 0 -d 2 -p cbr -e 500 -c 2 -i 75 -a 2 -x {0.0 3.1 -1 ------- null}