+ 0 0 2 cbr 500 ------- 2 0.0 3.1 0 0
- 0 0 2 cbr 500 ------- 2 0.0 3.1 0 0
+ 0.0025 0 2 cbr 500 ------- 2 0.0 3.1 1 1
- 0.0025 0 2 cbr 500 ------- 2 0.0 3.1 1 1
+ 0.005 0 2 cbr 500 ------- 2 0.0 3.1 2 2
- 0.005 0 2 cbr 500 ------- 2 0.0 3.1 2 2
+ 0.0075 0 2 cbr 500 ------- 2 0.0 3.1 3 3
- 0.0075 0 2 cbr 500 ------- 2 0.0 3.1 3 3
+ 0.01 0 2 cbr 500 ------- 2 0.0 3.1 4 4
- 0.01 0 2 cbr 500 ------- 2 0.0 3.1 4 4
+ 0.0125 0 2 cbr 500 ------- 2 0.0 3.1 5 5
- 0.0125 0 2 cbr 500 ------- 2 0.0 3.1 5 5
+ 0.015 0 2 cbr 500 ------- 2 0.0 3.1 6 6
- 0.015 0 2 cbr 500 ------- 2 0.0 3.1 6 6
+ 0.0175 0 2 cbr 500 ------- 2 0.0 3.1 7 7
- 0.0175 0 2 cbr 500 ------- 2 0.0 3.1 7 7
+ 0.02 0 2 cbr 500 ------- 2 0.0 3.1 8 8
- 0.02 0 2 cbr 500 ------- 2 0.0 3.1 8 8
+ 0.0225 0 2 cbr 500 ------- 2 0.0 3.1 9 9
- 0.0225 0 2 cbr 500 ------- 2 0.0 3.1 9 9
+ 0.025 0 2 cbr 500 ------- 2 0.0 3.1 10 10
- 0.025 0 2 cbr 500 ------- 2 0.0 3.1 10 10
+ 0.0275 0 2 cbr 500 ------- 2 0.0 3.1 11 11
- 0.0275 0 2 cbr 500 ------- 2 0.0 3.1 11 11
+ 0.03 0 2 cbr 500 ------- 2 0.0 3.1 12 12
- 0.03 0 2 cbr 500 ------- 2 0.0 3.1 12 12
+ 0.0325 0 2 cbr 500 ------- 2 0.0 3.1 13 13
- 0.0325 0 2 cbr 500 ------- 2 0.0 3.1 13 13
+ 0.035 0 2 cbr 500 ------- 2 0.0 3.1 14 14
- 0.035 0 2 cbr 500 ------- 2 0.0 3.1 14 14
+ 0.0375 0 2 cbr 500 ------- 2 0.0 3.1 15 15
- 0.0375 0 2 cbr 500 ------- 2 0.0 3.1 15 15
+ 0.04 0 2 cbr 500 ------- 2 0.0 3.1 16 16
- 0.04 0 2 cbr 500 ------- 2 0.0 3.1 16 16
+ 0.0425 0 2 cbr 500 ------- 2 0.0 3.1 17 17
- 0.0425 0 2 cbr 500 ------- 2 0.0 3.1 17 17
+ 0.045 0 2 cbr 500 ------- 2 0.0 3.1 18 18
- 0.045 0 2 cbr 500 ------- 2 0.0 3.1 18 18
+ 0.0475 0 2 cbr 500 ------- 2 0.0 3.1 19 19
- 0.0475 0 2 cbr 500 ------- 2 0.0 3.1 19 19
+ 0.05 0 2 cbr 500 ------- 2 0.0 3.1 20 20
- 0.05 0 2 cbr 500 ------- 2 0.0 3.1 20 20
+ 0.0525 0 2 cbr 500 ------- 2 0.0 3.1 21 21
- 0.0525 0 2 cbr 500 ------- 2 0.0 3.1 21 21
+ 0.055 0 2 cbr 500 ------- 2 0.0 3.1 22 22
- 0.055 0 2 cbr 500 ------- 2 0.0 3.1 22 22
+ 0.0575 0 2 cbr 500 ------- 2 0.0 3.1 23 23
- 0.0575 0 2 cbr 500 ------- 2 0.0 3.1 23 23
+ 0.06 0 2 cbr 500 ------- 2 0.0 3.1 24 24
- 0.06 0 2 cbr 500 ------- 2 0.0 3.1 24 24
+ 0.0625 0 2 cbr 500 ------- 2 0.0 3.1 25 25
- 0.0625 0 2 cbr 500 ------- 2 0.0 3.1 25 25
+ 0.065 0 2 cbr 500 ------- 2 0.0 3.1 26 26
- 0.065 0 2 cbr 500 ------- 2 0.0 3.1 26 26
+ 0.0675 0 2 cbr 500 ------- 2 0.0 3.1 27 27
- 0.0675 0 2 cbr 500 ------- 2 0.0 3.1 27 27
+ 0.07 0 2 cbr 500 ------- 2 0.0 3.1 28 28
- 0.07 0 2 cbr 500 ------- 2 0.0 3.1 28 28
+ 0.0725 0 2 cbr 500 ------- 2 0.0 3.1 29 29
- 0.0725 0 2 cbr 500 ------- 2 0.0 3.1 29 29
+ 0.075 0 2 cbr 500 ------- 2 0.0 3.1 30 30
- 0.075 0 2 cbr 500 ------- 2 0.0 3.1 30 30
+ 0.0775 0 2 cbr 500 ------- 2 0.0 3.1 31 31
- 0.0775 0 2 cbr 500 ------- 2 0.0 3.1 31 31
+ 0.08 0 2 cbr 500 ------- 2 0.0 3.1 32 32
- 0.08 0 2 cbr 500 ------- 2 0.0 3.1 32 32
+ 0.0825 0 2 cbr 500 ------- 2 0.0 3.1 33 33
- 0.0825 0 2 cbr 500 ------- 2 0.0 3.1 33 33
+ 0.085 0 2 cbr 500 ------- 2 0.0 3.1 34 34
- 0.085 0 2 cbr 500 ------- 2 0.0 3.1 34 34
+ 0.0875 0 2 cbr 500 ------- 2 0.0 3.1 35 35
- 0.0875 0 2 cbr 500 ------- 2 0.0 3.1 35 35
+ 0.09 0 2 cbr 500 ------- 2 0.0 3.1 36 36
- 0.09 0 2 cbr 500 ------- 2 0.0 3.1 36 36
+ 0.0925 0 2 cbr 500 ------- 2 0.0 3.1 37 37
- 0.0925 0 2 cbr 500 ------- 2 0.0 3.1 37 37
+ 0.095 0 2 cbr 500 ------- 2 0.0 3.1 38 38
- 0.095 0 2 cbr 500 ------- 2 0.0 3.1 38 38
+ 0.0975 0 2 cbr 500 ------- 2 0.0 3.1 39 39
- 0.0975 0 2 cbr 500 ------- 2 0.0 3.1 39 39
+ 0.1 0 2 cbr 500 ------- 2 0.0 3.1 40 40
- 0.1 0 2 cbr 500 ------- 2 0.0 3.1 40 40
r 0.102 0 2 cbr 500 ------- 2 0.0 3.1 0 0
+ 0.102 2 3 cbr 500 ------- 2 0.0 3.1 0 0
- 0.102 2 3 cbr 500 ------- 2 0.0 3.1 0 0
+ 0.1025 0 2 cbr 500 ------- 2 0.0 3.1 41 41
- 0.1025 0 2 cbr 500 ------- 2 0.0 3.1 41 41
r 0.1045 0 2 cbr 500 ------- 2 0.0 3.1 1 1
+ 0.1045 2 3 cbr 500 ------- 2 0.0 3.1 1 1
- 0.1045 2 3 cbr 500 ------- 2 0.0 3.1 1 1
+ 0.105 0 2 cbr 500 ------- 2 0.0 3.1 42 42
- 0.105 0 2 cbr 500 ------- 2 0.0 3.1 42 42
r 0.107 0 2 cbr 500 ------- 2 0.0 3.1 2 2
+ 0.107 2 3 cbr 500 ------- 2 0.0 3.1 2 2
- 0.107 2 3 cbr 500 ------- 2 0.0 3.1 2 2
+ 0.1075 0 2 cbr 500 ------- 2 0.0 3.1 43 43
- 0.1075 0 2 cbr 500 ------- 2 0.0 3.1 43 43
r 0.1095 0 2 cbr 500 ------- 2 0.0 3.1 3 3
+ 0.1095 2 3 cbr 500 ------- 2 0.0 3.1 3 3
- 0.1095 2 3 cbr 500 ------- 2 0.0 3.1 3 3
+ 0.11 0 2 cbr 500 ------- 2 0.0 3.1 44 44
- 0.11 0 2 cbr 500 ------- 2 0.0 3.1 44 44
r 0.112 0 2 cbr 500 ------- 2 0.0 3.1 4 4
+ 0.112 2 3 cbr 500 ------- 2 0.0 3.1 4 4
- 0.112 2 3 cbr 500 ------- 2 0.0 3.1 4 4
+ 0.1125 0 2 cbr 500 ------- 2 0.0 3.1 45 45
- 0.1125 0 2 cbr 500 ------- 2 0.0 3.1 45 45
r 0.1145 0 2 cbr 500 ------- 2 0.0 3.1 5 5
+ 0.1145 2 3 cbr 500 ------- 2 0.0 3.1 5 5
- 0.1145 2 3 cbr 500 ------- 2 0.0 3.1 5 5
+ 0.115 0 2 cbr 500 ------- 2 0.0 3.1 46 46
- 0.115 0 2 cbr 500 ------- 2 0.0 3.1 46 46
r 0.117 0 2 cbr 500 ------- 2 0.0 3.1 6 6
+ 0.117 2 3 cbr 500 ------- 2 0.0 3.1 6 6
- 0.117 2 3 cbr 500 ------- 2 0.0 3.1 6 6
+ 0.1175 0 2 cbr 500 ------- 2 0.0 3.1 47 47
- 0.1175 0 2 cbr 500 ------- 2 0.0 3.1 47 47
r 0.1195 0 2 cbr 500 ------- 2 0.0 3.1 7 7
+ 0.1195 2 3 cbr 500 ------- 2 0.0 3.1 7 7
- 0.1195 2 3 cbr 500 ------- 2 0.0 3.1 7 7
+ 0.12 0 2 cbr 500 ------- 2 0.0 3.1 48 48
- 0.12 0 2 cbr 500 ------- 2 0.0 3.1 48 48
r 0.122 0 2 cbr 500 ------- 2 0.0 3.1 8 8
+ 0.122 2 3 cbr 500 ------- 2 0.0 3.1 8 8
- 0.122 2 3 cbr 500 ------- 2 0.0 3.1 8 8
+ 0.1225 0 2 cbr 500 ------- 2 0.0 3.1 49 49
- 0.1225 0 2 cbr 500 ------- 2 0.0 3.1 49 49
r 0.1245 0 2 cbr 500 ------- 2 0.0 3.1 9 9
+ 0.1245 2 3 cbr 500 ------- 2 0.0 3.1 9 9
- 0.1245 2 3 cbr 500 ------- 2 0.0 3.1 9 9
+ 0.125 0 2 cbr 500 ------- 2 0.0 3.1 50 50
- 0.125 0 2 cbr 500 ------- 2 0.0 3.1 50 50
r 0.127 0 2 cbr 500 ------- 2 0.0 3.1 10 10
+ 0.127 2 3 cbr 500 ------- 2 0.0 3.1 10 10
- 0.127 2 3 cbr 500 ------- 2 0.0 3.1 10 10
+ 0.1275 0 2 cbr 500 ------- 2 0.0 3.1 51 51
- 0.1275 0 2 cbr 500 ------- 2 0.0 3.1 51 51
r 0.1295 0 2 cbr 500 ------- 2 0.0 3.1 11 11
+ 0.1295 2 3 cbr 500 ------- 2 0.0 3.1 11 11
- 0.1295 2 3 cbr 500 ------- 2 0.0 3.1 11 11
+ 0.13 0 2 cbr 500 ------- 2 0.0 3.1 52 52
- 0.13 0 2 cbr 500 ------- 2 0.0 3.1 52 52
r 0.132 0 2 cbr 500 ------- 2 0.0 3.1 12 12
+ 0.132 2 3 cbr 500 ------- 2 0.0 3.1 12 12
- 0.132 2 3 cbr 500 ------- 2 0.0 3.1 12 12
+ 0.1325 0 2 cbr 500 ------- 2 0.0 3.1 53 53
- 0.1325 0 2 cbr 500 ------- 2 0.0 3.1 53 53
r 0.1345 0 2 cbr 500 ------- 2 0.0 3.1 13 13
+ 0.1345 2 3 cbr 500 ------- 2 0.0 3.1 13 13
- 0.1345 2 3 cbr 500 ------- 2 0.0 3.1 13 13
+ 0.135 0 2 cbr 500 ------- 2 0.0 3.1 54 54
- 0.135 0 2 cbr 500 ------- 2 0.0 3.1 54 54
r 0.137 0 2 cbr 500 ------- 2 0.0 3.1 14 14
+ 0.137 2 3 cbr 500 ------- 2 0.0 3.1 14 14
- 0.137 2 3 cbr 500 ------- 2 0.0 3.1 14 14
+ 0.1375 0 2 cbr 500 ------- 2 0.0 3.1 55 55
- 0.1375 0 2 cbr 500 ------- 2 0.0 3.1 55 55
r 0.1395 0 2 cbr 500 ------- 2 0.0 3.1 15 15
+ 0.1395 2 3 cbr 500 ------- 2 0.0 3.1 15 15
- 0.1395 2 3 cbr 500 ------- 2 0.0 3.1 15 15
+ 0.14 0 2 cbr 500 ------- 2 0.0 3.1 56 56
- 0.14 0 2 cbr 500 ------- 2 0.0 3.1 56 56
r 0.142 0 2 cbr 500 ------- 2 0.0 3.1 16 16
+ 0.142 2 3 cbr 500 ------- 2 0.0 3.1 16 16
- 0.142 2 3 cbr 500 ------- 2 0.0 3.1 16 16
+ 0.1425 0 2 cbr 500 ------- 2 0.0 3.1 57 57
- 0.1425 0 2 cbr 500 ------- 2 0.0 3.1 57 57
r 0.1445 0 2 cbr 500 ------- 2 0.0 3.1 17 17
+ 0.1445 2 3 cbr 500 ------- 2 0.0 3.1 17 17
- 0.1445 2 3 cbr 500 ------- 2 0.0 3.1 17 17
+ 0.145 0 2 cbr 500 ------- 2 0.0 3.1 58 58
- 0.145 0 2 cbr 500 ------- 2 0.0 3.1 58 58
r 0.147 0 2 cbr 500 ------- 2 0.0 3.1 18 18
+ 0.147 2 3 cbr 500 ------- 2 0.0 3.1 18 18
- 0.147 2 3 cbr 500 ------- 2 0.0 3.1 18 18
+ 0.1475 0 2 cbr 500 ------- 2 0.0 3.1 59 59
- 0.1475 0 2 cbr 500 ------- 2 0.0 3.1 59 59
r 0.1495 0 2 cbr 500 ------- 2 0.0 3.1 19 19
+ 0.1495 2 3 cbr 500 ------- 2 0.0 3.1 19 19
- 0.1495 2 3 cbr 500 ------- 2 0.0 3.1 19 19
+ 0.15 0 2 cbr 500 ------- 2 0.0 3.1 60 60
- 0.15 0 2 cbr 500 ------- 2 0.0 3.1 60 60
r 0.152 0 2 cbr 500 ------- 2 0.0 3.1 20 20
+ 0.152 2 3 cbr 500 ------- 2 0.0 3.1 20 20
- 0.152 2 3 cbr 500 ------- 2 0.0 3.1 20 20
+ 0.1525 0 2 cbr 500 ------- 2 0.0 3.1 61 61
- 0.1525 0 2 cbr 500 ------- 2 0.0 3.1 61 61
r 0.1545 0 2 cbr 500 ------- 2 0.0 3.1 21 21
+ 0.1545 2 3 cbr 500 ------- 2 0.0 3.1 21 21
- 0.1545 2 3 cbr 500 ------- 2 0.0 3.1 21 21
+ 0.155 0 2 cbr 500 ------- 2 0.0 3.1 62 62
- 0.155 0 2 cbr 500 ------- 2 0.0 3.1 62 62
r 0.157 0 2 cbr 500 ------- 2 0.0 3.1 22 22
+ 0.157 2 3 cbr 500 ------- 2 0.0 3.1 22 22
- 0.157 2 3 cbr 500 ------- 2 0.0 3.1 22 22
+ 0.1575 0 2 cbr 500 ------- 2 0.0 3.1 63 63
- 0.1575 0 2 cbr 500 ------- 2 0.0 3.1 63 63
r 0.1595 0 2 cbr 500 ------- 2 0.0 3.1 23 23
+ 0.1595 2 3 cbr 500 ------- 2 0.0 3.1 23 23
- 0.1595 2 3 cbr 500 ------- 2 0.0 3.1 23 23
+ 0.16 0 2 cbr 500 ------- 2 0.0 3.1 64 64
- 0.16 0 2 cbr 500 ------- 2 0.0 3.1 64 64
r 0.162 0 2 cbr 500 ------- 2 0.0 3.1 24 24
+ 0.162 2 3 cbr 500 ------- 2 0.0 3.1 24 24
- 0.162 2 3 cbr 500 ------- 2 0.0 3.1 24 24
+ 0.1625 0 2 cbr 500 ------- 2 0.0 3.1 65 65
- 0.1625 0 2 cbr 500 ------- 2 0.0 3.1 65 65
r 0.1645 0 2 cbr 500 ------- 2 0.0 3.1 25 25
+ 0.1645 2 3 cbr 500 ------- 2 0.0 3.1 25 25
- 0.1645 2 3 cbr 500 ------- 2 0.0 3.1 25 25
+ 0.165 0 2 cbr 500 ------- 2 0.0 3.1 66 66
- 0.165 0 2 cbr 500 ------- 2 0.0 3.1 66 66
r 0.167 0 2 cbr 500 ------- 2 0.0 3.1 26 26
+ 0.167 2 3 cbr 500 ------- 2 0.0 3.1 26 26
- 0.167 2 3 cbr 500 ------- 2 0.0 3.1 26 26
+ 0.1675 0 2 cbr 500 ------- 2 0.0 3.1 67 67
- 0.1675 0 2 cbr 500 ------- 2 0.0 3.1 67 67
r 0.1695 0 2 cbr 500 ------- 2 0.0 3.1 27 27
+ 0.1695 2 3 cbr 500 ------- 2 0.0 3.1 27 27
- 0.1695 2 3 cbr 500 ------- 2 0.0 3.1 27 27
+ 0.17 0 2 cbr 500 ------- 2 0.0 3.1 68 68
- 0.17 0 2 cbr 500 ------- 2 0.0 3.1 68 68
r 0.172 0 2 cbr 500 ------- 2 0.0 3.1 28 28
+ 0.172 2 3 cbr 500 ------- 2 0.0 3.1 28 28
- 0.172 2 3 cbr 500 ------- 2 0.0 3.1 28 28
+ 0.1725 0 2 cbr 500 ------- 2 0.0 3.1 69 69
- 0.1725 0 2 cbr 500 ------- 2 0.0 3.1 69 69
r 0.1745 0 2 cbr 500 ------- 2 0.0 3.1 29 29
+ 0.1745 2 3 cbr 500 ------- 2 0.0 3.1 29 29
- 0.1745 2 3 cbr 500 ------- 2 0.0 3.1 29 29
+ 0.175 0 2 cbr 500 ------- 2 0.0 3.1 70 70
- 0.175 0 2 cbr 500 ------- 2 0.0 3.1 70 70
r 0.177 0 2 cbr 500 ------- 2 0.0 3.1 30 30
+ 0.177 2 3 cbr 500 ------- 2 0.0 3.1 30 30
- 0.177 2 3 cbr 500 ------- 2 0.0 3.1 30 30
+ 0.1775 0 2 cbr 500 ------- 2 0.0 3.1 71 71
- 0.1775 0 2 cbr 500 ------- 2 0.0 3.1 71 71
r 0.1795 0 2 cbr 500 ------- 2 0.0 3.1 31 31
+ 0.1795 2 3 cbr 500 ------- 2 0.0 3.1 31 31
- 0.1795 2 3 cbr 500 ------- 2 0.0 3.1 31 31
+ 0.18 0 2 cbr 500 ------- 2 0.0 3.1 72 72
- 0.18 0 2 cbr 500 ------- 2 0.0 3.1 72 72
r 0.182 0 2 cbr 500 ------- 2 0.0 3.1 32 32
+ 0.182 2 3 cbr 500 ------- 2 0.0 3.1 32 32
- 0.182 2 3 cbr 500 ------- 2 0.0 3.1 32 32
+ 0.1825 0 2 cbr 500 ------- 2 0.0 3.1 73 73
- 0.1825 0 2 cbr 500 ------- 2 0.0 3.1 73 73
r 0.1845 0 2 cbr 500 ------- 2 0.0 3.1 33 33
+ 0.1845 2 3 cbr 500 ------- 2 0.0 3.1 33 33
- 0.1845 2 3 cbr 500 ------- 2 0.0 3.1 33 33
+ 0.185 0 2 cbr 500 ------- 2 0.0 3.1 74 74
- 0.185 0 2 cbr 500 ------- 2 0.0 3.1 74 74
r 0.187 0 2 cbr 500 ------- 2 0.0 3.1 34 34
+ 0.187 2 3 cbr 500 ------- 2 0.0 3.1 34 34
- 0.187 2 3 cbr 500 ------- 2 0.0 3.1 34 34
+ 0.1875 0 2 cbr 500 ------- 2 0.0 3.1 75 75
- 0.1875 0 2 cbr 500 ------- 2 0.0 3.1 75 75
r 0.1895 0 2 cbr 500 ------- 2 0.0 3.1 35 35
+ 0.1895 2 3 cbr 500 ------- 2 0.0 3.1 35 35
- 0.1895 2 3 cbr 500 ------- 2 0.0 3.1 35 35
+ 0.19 0 2 cbr 500 ------- 2 0.0 3.1 76 76
- 0.19 0 2 cbr 500 ------- 2 0.0 3.1 76 76
r 0.192 0 2 cbr 500 ------- 2 0.0 3.1 36 36
+ 0.192 2 3 cbr 500 ------- 2 0.0 3.1 36 36
- 0.192 2 3 cbr 500 ------- 2 0.0 3.1 36 36
+ 0.1925 0 2 cbr 500 ------- 2 0.0 3.1 77 77
- 0.1925 0 2 cbr 500 ------- 2 0.0 3.1 77 77
r 0.1945 0 2 cbr 500 ------- 2 0.0 3.1 37 37
+ 0.1945 2 3 cbr 500 ------- 2 0.0 3.1 37 37
- 0.1945 2 3 cbr 500 ------- 2 0.0 3.1 37 37
+ 0.195 0 2 cbr 500 ------- 2 0.0 3.1 78 78
- 0.195 0 2 cbr 500 ------- 2 0.0 3.1 78 78
r 0.197 0 2 cbr 500 ------- 2 0.0 3.1 38 38
+ 0.197 2 3 cbr 500 ------- 2 0.0 3.1 38 38
- 0.197 2 3 cbr 500 ------- 2 0.0 3.1 38 38
+ 0.1975 0 2 cbr 500 ------- 2 0.0 3.1 79 79
- 0.1975 0 2 cbr 500 ------- 2 0.0 3.1 79 79
r 0.1995 0 2 cbr 500 ------- 2 0.0 3.1 39 39
+ 0.1995 2 3 cbr 500 ------- 2 0.0 3.1 39 39
- 0.1995 2 3 cbr 500 ------- 2 0.0 3.1 39 39
+ 0.2 0 2 cbr 500 ------- 2 0.0 3.1 80 80
- 0.2 0 2 cbr 500 ------- 2 0.0 3.1 80 80
r 0.202 0 2 cbr 500 ------- 2 0.0 3.1 40 40
+ 0.202 2 3 cbr 500 ------- 2 0.0 3.1 40 40
- 0.202 2 3 cbr 500 ------- 2 0.0 3.1 40 40
+ 0.2025 0 2 cbr 500 ------- 2 0.0 3.1 81 81
- 0.2025 0 2 cbr 500 ------- 2 0.0 3.1 81 81
r 0.204 2 3 cbr 500 ------- 2 0.0 3.1 0 0
r 0.2045 0 2 cbr 500 ------- 2 0.0 3.1 41 41
+ 0.2045 2 3 cbr 500 ------- 2 0.0 3.1 41 41
- 0.2045 2 3 cbr 500 ------- 2 0.0 3.1 41 41
+ 0.205 0 2 cbr 500 ------- 2 0.0 3.1 82 82
- 0.205 0 2 cbr 500 ------- 2 0.0 3.1 82 82
r 0.2065 2 3 cbr 500 ------- 2 0.0 3.1 1 1
r 0.207 0 2 cbr 500 ------- 2 0.0 3.1 42 42
+ 0.207 2 3 cbr 500 ------- 2 0.0 3.1 42 42
- 0.207 2 3 cbr 500 ------- 2 0.0 3.1 42 42
+ 0.2075 0 2 cbr 500 ------- 2 0.0 3.1 83 83
- 0.2075 0 2 cbr 500 ------- 2 0.0 3.1 83 83
r 0.209 2 3 cbr 500 ------- 2 0.0 3.1 2 2
r 0.2095 0 2 cbr 500 ------- 2 0.0 3.1 43 43
+ 0.2095 2 3 cbr 500 ------- 2 0.0 3.1 43 43
- 0.2095 2 3 cbr 500 ------- 2 0.0 3.1 43 43
+ 0.21 0 2 cbr 500 ------- 2 0.0 3.1 84 84
- 0.21 0 2 cbr 500 ------- 2 0.0 3.1 84 84
r 0.2115 2 3 cbr 500 ------- 2 0.0 3.1 3 3
r 0.212 0 2 cbr 500 ------- 2 0.0 3.1 44 44
+ 0.212 2 3 cbr 500 ------- 2 0.0 3.1 44 44
- 0.212 2 3 cbr 500 ------- 2 0.0 3.1 44 44
+ 0.2125 0 2 cbr 500 ------- 2 0.0 3.1 85 85
- 0.2125 0 2 cbr 500 ------- 2 0.0 3.1 85 85
r 0.214 2 3 cbr 500 ------- 2 0.0 3.1 4 4
r 0.2145 0 2 cbr 500 ------- 2 0.0 3.1 45 45
+ 0.2145 2 3 cbr 500 ------- 2 0.0 3.1 45 45
- 0.2145 2 3 cbr 500 ------- 2 0.0 3.1 45 45
+ 0.215 0 2 cbr 500 ------- 2 0.0 3.1 86 86
- 0.215 0 2 cbr 500 ------- 2 0.0 3.1 86 86
r 0.2165 2 3 cbr 500 ------- 2 0.0 3.1 5 5
r 0.217 0 2 cbr 500 ------- 2 0.0 3.1 46 46
+ 0.217 2 3 cbr 500 ------- 2 0.0 3.1 46 46
- 0.217 2 3 cbr 500 ------- 2 0.0 3.1 46 46
+ 0.2175 0 2 cbr 500 ------- 2 0.0 3.1 87 87
- 0.2175 0 2 cbr 500 ------- 2 0.0 3.1 87 87
r 0.219 2 3 cbr 500 ------- 2 0.0 3.1 6 6
r 0.2195 0 2 cbr 500 ------- 2 0.0 3.1 47 47
+ 0.2195 2 3 cbr 500 ------- 2 0.0 3.1 47 47
- 0.2195 2 3 cbr 500 ------- 2 0.0 3.1 47 47
+ 0.22 0 2 cbr 500 ------- 2 0.0 3.1 88 88
- 0.22 0 2 cbr 500 ------- 2 0.0 3.1 88 88
r 0.2215 2 3 cbr 500 ------- 2 0.0 3.1 7 7
r 0.222 0 2 cbr 500 ------- 2 0.0 3.1 48 48
+ 0.222 2 3 cbr 500 ------- 2 0.0 3.1 48 48
- 0.222 2 3 cbr 500 ------- 2 0.0 3.1 48 48
+ 0.2225 0 2 cbr 500 ------- 2 0.0 3.1 89 89
- 0.2225 0 2 cbr 500 ------- 2 0.0 3.1 89 89
r 0.224 2 3 cbr 500 ------- 2 0.0 3.1 8 8
r 0.2245 0 2 cbr 500 ------- 2 0.0 3.1 49 49
+ 0.2245 2 3 cbr 500 ------- 2 0.0 3.1 49 49
- 0.2245 2 3 cbr 500 ------- 2 0.0 3.1 49 49
+ 0.225 0 2 cbr 500 ------- 2 0.0 3.1 90 90
- 0.225 0 2 cbr 500 ------- 2 0.0 3.1 90 90
r 0.2265 2 3 cbr 500 ------- 2 0.0 3.1 9 9
r 0.227 0 2 cbr 500 ------- 2 0.0 3.1 50 50
+ 0.227 2 3 cbr 500 ------- 2 0.0 3.1 50 50
- 0.227 2 3 cbr 500 ------- 2 0.0 3.1 50 50
+ 0.2275 0 2 cbr 500 ------- 2 0.0 3.1 91 91
- 0.2275 0 2 cbr 500 ------- 2 0.0 3.1 91 91
r 0.229 2 3 cbr 500 ------- 2 0.0 3.1 10 10
r 0.2295 0 2 cbr 500 ------- 2 0.0 3.1 51 51
+ 0.2295 2 3 cbr 500 ------- 2 0.0 3.1 51 51
- 0.2295 2 3 cbr 500 ------- 2 0.0 3.1 51 51
+ 0.23 0 2 cbr 500 ------- 2 0.0 3.1 92 92
- 0.23 0 2 cbr 500 ------- 2 0.0 3.1 92 92
r 0.2315 2 3 cbr 500 ------- 2 0.0 3.1 11 11
r 0.232 0 2 cbr 500 ------- 2 0.0 3.1 52 52
+ 0.232 2 3 cbr 500 ------- 2 0.0 3.1 52 52
- 0.232 2 3 cbr 500 ------- 2 0.0 3.1 52 52
+ 0.2325 0 2 cbr 500 ------- 2 0.0 3.1 93 93
- 0.2325 0 2 cbr 500 ------- 2 0.0 3.1 93 93
r 0.234 2 3 cbr 500 ------- 2 0.0 3.1 12 12
r 0.2345 0 2 cbr 500 ------- 2 0.0 3.1 53 53
+ 0.2345 2 3 cbr 500 ------- 2 0.0 3.1 53 53
- 0.2345 2 3 cbr 500 ------- 2 0.0 3.1 53 53
+ 0.235 0 2 cbr 500 ------- 2 0.0 3.1 94 94
- 0.235 0 2 cbr 500 ------- 2 0.0 3.1 94 94
r 0.2365 2 3 cbr 500 ------- 2 0.0 3.1 13 13
r 0.237 0 2 cbr 500 ------- 2 0.0 3.1 54 54
+ 0.237 2 3 cbr 500 ------- 2 0.0 3.1 54 54
- 0.237 2 3 cbr 500 ------- 2 0.0 3.1 54 54
+ 0.2375 0 2 cbr 500 ------- 2 0.0 3.1 95 95
- 0.2375 0 2 cbr 500 ------- 2 0.0 3.1 95 95
r 0.239 2 3 cbr 500 ------- 2 0.0 3.1 14 14
r 0.2395 0 2 cbr 500 ------- 2 0.0 3.1 55 55
+ 0.2395 2 3 cbr 500 ------- 2 0.0 3.1 55 55
- 0.2395 2 3 cbr 500 ------- 2 0.0 3.1 55 55
+ 0.24 0 2 cbr 500 ------- 2 0.0 3.1 96 96
- 0.24 0 2 cbr 500 ------- 2 0.0 3.1 96 96
r 0.2415 2 3 cbr 500 ------- 2 0.0 3.1 15 15
r 0.242 0 2 cbr 500 ------- 2 0.0 3.1 56 56
+ 0.242 2 3 cbr 500 ------- 2 0.0 3.1 56 56
- 0.242 2 3 cbr 500 ------- 2 0.0 3.1 56 56
+ 0.2425 0 2 cbr 500 ------- 2 0.0 3.1 97 97
- 0.2425 0 2 cbr 500 ------- 2 0.0 3.1 97 97
r 0.244 2 3 cbr 500 ------- 2 0.0 3.1 16 16
r 0.2445 0 2 cbr 500 ------- 2 0.0 3.1 57 57
+ 0.2445 2 3 cbr 500 ------- 2 0.0 3.1 57 57
- 0.2445 2 3 cbr 500 ------- 2 0.0 3.1 57 57
+ 0.245 0 2 cbr 500 ------- 2 0.0 3.1 98 98
- 0.245 0 2 cbr 500 ------- 2 0.0 3.1 98 98
r 0.2465 2 3 cbr 500 ------- 2 0.0 3.1 17 17
r 0.247 0 2 cbr 500 ------- 2 0.0 3.1 58 58
+ 0.247 2 3 cbr 500 ------- 2 0.0 3.1 58 58
- 0.247 2 3 cbr 500 ------- 2 0.0 3.1 58 58
+ 0.2475 0 2 cbr 500 ------- 2 0.0 3.1 99 99
- 0.2475 0 2 cbr 500 ------- 2 0.0 3.1 99 99
r 0.249 2 3 cbr 500 ------- 2 0.0 3.1 18 18
r 0.2495 0 2 cbr 500 ------- 2 0.0 3.1 59 59
+ 0.2495 2 3 cbr 500 ------- 2 0.0 3.1 59 59
- 0.2495 2 3 cbr 500 ------- 2 0.0 3.1 59 59
+ 0.25 0 2 cbr 500 ------- 2 0.0 3.1 100 100
- 0.25 0 2 cbr 500 ------- 2 0.0 3.1 100 100
r 0.2515 2 3 cbr 500 ------- 2 0.0 3.1 19 19
r 0.252 0 2 cbr 500 ------- 2 0.0 3.1 60 60
+ 0.252 2 3 cbr 500 ------- 2 0.0 3.1 60 60
- 0.252 2 3 cbr 500 ------- 2 0.0 3.1 60 60
+ 0.2525 0 2 cbr 500 ------- 2 0.0 3.1 101 101
- 0.2525 0 2 cbr 500 ------- 2 0.0 3.1 101 101
r 0.254 2 3 cbr 500 ------- 2 0.0 3.1 20 20
r 0.2545 0 2 cbr 500 ------- 2 0.0 3.1 61 61
+ 0.2545 2 3 cbr 500 ------- 2 0.0 3.1 61 61
- 0.2545 2 3 cbr 500 ------- 2 0.0 3.1 61 61
+ 0.255 0 2 cbr 500 ------- 2 0.0 3.1 102 102
- 0.255 0 2 cbr 500 ------- 2 0.0 3.1 102 102
r 0.2565 2 3 cbr 500 ------- 2 0.0 3.1 21 21
r 0.257 0 2 cbr 500 ------- 2 0.0 3.1 62 62
+ 0.257 2 3 cbr 500 ------- 2 0.0 3.1 62 62
- 0.257 2 3 cbr 500 ------- 2 0.0 3.1 62 62
+ 0.2575 0 2 cbr 500 ------- 2 0.0 3.1 103 103
- 0.2575 0 2 cbr 500 ------- 2 0.0 3.1 103 103
r 0.259 2 3 cbr 500 ------- 2 0.0 3.1 22 22
r 0.2595 0 2 cbr 500 ------- 2 0.0 3.1 63 63
+ 0.2595 2 3 cbr 500 ------- 2 0.0 3.1 63 63
- 0.2595 2 3 cbr 500 ------- 2 0.0 3.1 63 63
+ 0.26 0 2 cbr 500 ------- 2 0.0 3.1 104 104
- 0.26 0 2 cbr 500 ------- 2 0.0 3.1 104 104
r 0.2615 2 3 cbr 500 ------- 2 0.0 3.1 23 23
r 0.262 0 2 cbr 500 ------- 2 0.0 3.1 64 64
+ 0.262 2 3 cbr 500 ------- 2 0.0 3.1 64 64
- 0.262 2 3 cbr 500 ------- 2 0.0 3.1 64 64
+ 0.2625 0 2 cbr 500 ------- 2 0.0 3.1 105 105
- 0.2625 0 2 cbr 500 ------- 2 0.0 3.1 105 105
r 0.264 2 3 cbr 500 ------- 2 0.0 3.1 24 24
r 0.2645 0 2 cbr 500 ------- 2 0.0 3.1 65 65
+ 0.2645 2 3 cbr 500 ------- 2 0.0 3.1 65 65
- 0.2645 2 3 cbr 500 ------- 2 0.0 3.1 65 65
+ 0.265 0 2 cbr 500 ------- 2 0.0 3.1 106 106
- 0.265 0 2 cbr 500 ------- 2 0.0 3.1 106 106
r 0.2665 2 3 cbr 500 ------- 2 0.0 3.1 25 25
r 0.267 0 2 cbr 500 ------- 2 0.0 3.1 66 66
+ 0.267 2 3 cbr 500 ------- 2 0.0 3.1 66 66
- 0.267 2 3 cbr 500 ------- 2 0.0 3.1 66 66
+ 0.2675 0 2 cbr 500 ------- 2 0.0 3.1 107 107
- 0.2675 0 2 cbr 500 ------- 2 0.0 3.1 107 107
r 0.269 2 3 cbr 500 ------- 2 0.0 3.1 26 26
r 0.2695 0 2 cbr 500 ------- 2 0.0 3.1 67 67
+ 0.2695 2 3 cbr 500 ------- 2 0.0 3.1 67 67
- 0.2695 2 3 cbr 500 ------- 2 0.0 3.1 67 67
+ 0.27 0 2 cbr 500 ------- 2 0.0 3.1 108 108
- 0.27 0 2 cbr 500 ------- 2 0.0 3.1 108 108
r 0.2715 2 3 cbr 500 ------- 2 0.0 3.1 27 27
r 0.272 0 2 cbr 500 ------- 2 0.0 3.1 68 68
+ 0.272 2 3 cbr 500 ------- 2 0.0 3.1 68 68
- 0.272 2 3 cbr 500 ------- 2 0.0 3.1 68 68
+ 0.2725 0 2 cbr 500 ------- 2 0.0 3.1 109 109
- 0.2725 0 2 cbr 500 ------- 2 0.0 3.1 109 109
r 0.274 2 3 cbr 500 ------- 2 0.0 3.1 28 28
r 0.2745 0 2 cbr 500 ------- 2 0.0 3.1 69 69
+ 0.2745 2 3 cbr 500 ------- 2 0.0 3.1 69 69
- 0.2745 2 3 cbr 500 ------- 2 0.0 3.1 69 69
+ 0.275 0 2 cbr 500 ------- 2 0.0 3.1 110 110
- 0.275 0 2 cbr 500 ------- 2 0.0 3.1 110 110
r 0.2765 2 3 cbr 500 ------- 2 0.0 3.1 29 29
r 0.277 0 2 cbr 500 ------- 2 0.0 3.1 70 70
+ 0.277 2 3 cbr 500 ------- 2 0.0 3.1 70 70
- 0.277 2 3 cbr 500 ------- 2 0.0 3.1 70 70
+ 0.2775 0 2 cbr 500 ------- 2 0.0 3.1 111 111
- 0.2775 0 2 cbr 500 ------- 2 0.0 3.1 111 111
r 0.279 2 3 cbr 500 ------- 2 0.0 3.1 30 30
r 0.2795 0 2 cbr 500 ------- 2 0.0 3.1 71 71
+ 0.2795 2 3 cbr 500 ------- 2 0.0 3.1 71 71
- 0.2795 2 3 cbr 500 ------- 2 0.0 3.1 71 71
+ 0.28 0 2 cbr 500 ------- 2 0.0 3.1 112 112
- 0.28 0 2 cbr 500 ------- 2 0.0 3.1 112 112
r 0.2815 2 3 cbr 500 ------- 2 0.0 3.1 31 31
r 0.282 0 2 cbr 500 ------- 2 0.0 3.1 72 72
+ 0.282 2 3 cbr 500 ------- 2 0.0 3.1 72 72
- 0.282 2 3 cbr 500 ------- 2 0.0 3.1 72 72
+ 0.2825 0 2 cbr 500 ------- 2 0.0 3.1 113 113
- 0.2825 0 2 cbr 500 ------- 2 0.0 3.1 113 113
r 0.284 2 3 cbr 500 ------- 2 0.0 3.1 32 32
r 0.2845 0 2 cbr 500 ------- 2 0.0 3.1 73 73
+ 0.2845 2 3 cbr 500 ------- 2 0.0 3.1 73 73
- 0.2845 2 3 cbr 500 ------- 2 0.0 3.1 73 73
+ 0.285 0 2 cbr 500 ------- 2 0.0 3.1 114 114
- 0.285 0 2 cbr 500 ------- 2 0.0 3.1 114 114
r 0.2865 2 3 cbr 500 ------- 2 0.0 3.1 33 33
r 0.287 0 2 cbr 500 ------- 2 0.0 3.1 74 74
+ 0.287 2 3 cbr 500 ------- 2 0.0 3.1 74 74
- 0.287 2 3 cbr 500 ------- 2 0.0 3.1 74 74
+ 0.2875 0 2 cbr 500 ------- 2 0.0 3.1 115 115
- 0.2875 0 2 cbr 500 ------- 2 0.0 3.1 115 115
r 0.289 2 3 cbr 500 ------- 2 0.0 3.1 34 34
r 0.2895 0 2 cbr 500 ------- 2 0.0 3.1 75 75
+ 0.2895 2 3 cbr 500 ------- 2 0.0 3.1 75 75
- 0.2895 2 3 cbr 500 ------- 2 0.0 3.1 75 75
+ 0.29 0 2 cbr 500 ------- 2 0.0 3.1 116 116
- 0.29 0 2 cbr 500 ------- 2 0.0 3.1 116 116
r 0.2915 2 3 cbr 500 ------- 2 0.0 3.1 35 35
r 0.292 0 2 cbr 500 ------- 2 0.0 3.1 76 76
+ 0.292 2 3 cbr 500 ------- 2 0.0 3.1 76 76
- 0.292 2 3 cbr 500 ------- 2 0.0 3.1 76 76
+ 0.2925 0 2 cbr 500 ------- 2 0.0 3.1 117 117
- 0.2925 0 2 cbr 500 ------- 2 0.0 3.1 117 117
r 0.294 2 3 cbr 500 ------- 2 0.0 3.1 36 36
r 0.2945 0 2 cbr 500 ------- 2 0.0 3.1 77 77
+ 0.2945 2 3 cbr 500 ------- 2 0.0 3.1 77 77
- 0.2945 2 3 cbr 500 ------- 2 0.0 3.1 77 77
+ 0.295 0 2 cbr 500 ------- 2 0.0 3.1 118 118
- 0.295 0 2 cbr 500 ------- 2 0.0 3.1 118 118
r 0.2965 2 3 cbr 500 ------- 2 0.0 3.1 37 37
r 0.297 0 2 cbr 500 ------- 2 0.0 3.1 78 78
+ 0.297 2 3 cbr 500 ------- 2 0.0 3.1 78 78
- 0.297 2 3 cbr 500 ------- 2 0.0 3.1 78 78
+ 0.2975 0 2 cbr 500 ------- 2 0.0 3.1 119 119
- 0.2975 0 2 cbr 500 ------- 2 0.0 3.1 119 119
r 0.299 2 3 cbr 500 ------- 2 0.0 3.1 38 38
r 0.2995 0 2 cbr 500 ------- 2 0.0 3.1 79 79
+ 0.2995 2 3 cbr 500 ------- 2 0.0 3.1 79 79
- 0.2995 2 3 cbr 500 ------- 2 0.0 3.1 79 79
+ 0.3 0 2 cbr 500 ------- 2 0.0 3.1 120 120
- 0.3 0 2 cbr 500 ------- 2 0.0 3.1 120 120
r 0.3015 2 3 cbr 500 ------- 2 0.0 3.1 39 39
r 0.302 0 2 cbr 500 ------- 2 0.0 3.1 80 80
+ 0.302 2 3 cbr 500 ------- 2 0.0 3.1 80 80
- 0.302 2 3 cbr 500 ------- 2 0.0 3.1 80 80
+ 0.3025 0 2 cbr 500 ------- 2 0.0 3.1 121 121
- 0.3025 0 2 cbr 500 ------- 2 0.0 3.1 121 121
r 0.304 2 3 cbr 500 ------- 2 0.0 3.1 40 40
r 0.3045 0 2 cbr 500 ------- 2 0.0 3.1 81 81
+ 0.3045 2 3 cbr 500 ------- 2 0.0 3.1 81 81
- 0.3045 2 3 cbr 500 ------- 2 0.0 3.1 81 81
+ 0.305 0 2 cbr 500 ------- 2 0.0 3.1 122 122
- 0.305 0 2 cbr 500 ------- 2 0.0 3.1 122 122
r 0.3065 2 3 cbr 500 ------- 2 0.0 3.1 41 41
r 0.307 0 2 cbr 500 ------- 2 0.0 3.1 82 82
+ 0.307 2 3 cbr 500 ------- 2 0.0 3.1 82 82
- 0.307 2 3 cbr 500 ------- 2 0.0 3.1 82 82
+ 0.3075 0 2 cbr 500 ------- 2 0.0 3.1 123 123
- 0.3075 0 2 cbr 500 ------- 2 0.0 3.1 123 123
r 0.309 2 3 cbr 500 ------- 2 0.0 3.1 42 42
r 0.3095 0 2 cbr 500 ------- 2 0.0 3.1 83 83
+ 0.3095 2 3 cbr 500 ------- 2 0.0 3.1 83 83
- 0.3095 2 3 cbr 500 ------- 2 0.0 3.1 83 83
+ 0.31 0 2 cbr 500 ------- 2 0.0 3.1 124 124
- 0.31 0 2 cbr 500 ------- 2 0.0 3.1 124 124
r 0.3115 2 3 cbr 500 ------- 2 0.0 3.1 43 43
r 0.312 0 2 cbr 500 ------- 2 0.0 3.1 84 84
+ 0.312 2 3 cbr 500 ------- 2 0.0 3.1 84 84
- 0.312 2 3 cbr 500 ------- 2 0.0 3.1 84 84
+ 0.3125 0 2 cbr 500 ------- 2 0.0 3.1 125 125
- 0.3125 0 2 cbr 500 ------- 2 0.0 3.1 125 125
r 0.314 2 3 cbr 500 ------- 2 0.0 3.1 44 44
r 0.3145 0 2 cbr 500 ------- 2 0.0 3.1 85 85
+ 0.3145 2 3 cbr 500 ------- 2 0.0 3.1 85 85
- 0.3145 2 3 cbr 500 ------- 2 0.0 3.1 85 85
+ 0.315 0 2 cbr 500 ------- 2 0.0 3.1 126 126
- 0.315 0 2 cbr 500 ------- 2 0.0 3.1 126 126
r 0.3165 2 3 cbr 500 ------- 2 0.0 3.1 45 45
r 0.317 0 2 cbr 500 ------- 2 0.0 3.1 86 86
+ 0.317 2 3 cbr 500 ------- 2 0.0 3.1 86 86
- 0.317 2 3 cbr 500 ------- 2 0.0 3.1 86 86
+ 0.3175 0 2 cbr 500 ------- 2 0.0 3.1 127 127
- 0.3175 0 2 cbr 500 ------- 2 0.0 3.1 127 127
r 0.319 2 3 cbr 500 ------- 2 0.0 3.1 46 46
r 0.3195 0 2 cbr 500 ------- 2 0.0 3.1 87 87
+ 0.3195 2 3 cbr 500 ------- 2 0.0 3.1 87 87
- 0.3195 2 3 cbr 500 ------- 2 0.0 3.1 87 87
+ 0.32 0 2 cbr 500 ------- 2 0.0 3.1 128 128
- 0.32 0 2 cbr 500 ------- 2 0.0 3.1 128 128
r 0.3215 2 3 cbr 500 ------- 2 0.0 3.1 47 47
r 0.322 0 2 cbr 500 ------- 2 0.0 3.1 88 88
+ 0.322 2 3 cbr 500 ------- 2 0.0 3.1 88 88
- 0.322 2 3 cbr 500 ------- 2 0.0 3.1 88 88
+ 0.3225 0 2 cbr 500 ------- 2 0.0 3.1 129 129
- 0.3225 0 2 cbr 500 ------- 2 0.0 3.1 129 129
r 0.324 2 3 cbr 500 ------- 2 0.0 3.1 48 48
r 0.3245 0 2 cbr 500 ------- 2 0.0 3.1 89 89
+ 0.3245 2 3 cbr 500 ------- 2 0.0 3.1 89 89
- 0.3245 2 3 cbr 500 ------- 2 0.0 3.1 89 89
+ 0.325 0 2 cbr 500 ------- 2 0.0 3.1 130 130
- 0.325 0 2 cbr 500 ------- 2 0.0 3.1 130 130
r 0.3265 2 3 cbr 500 ------- 2 0.0 3.1 49 49
r 0.327 0 2 cbr 500 ------- 2 0.0 3.1 90 90
+ 0.327 2 3 cbr 500 ------- 2 0.0 3.1 90 90
- 0.327 2 3 cbr 500 ------- 2 0.0 3.1 90 90
+ 0.3275 0 2 cbr 500 ------- 2 0.0 3.1 131 131
- 0.3275 0 2 cbr 500 ------- 2 0.0 3.1 131 131
r 0.329 2 3 cbr 500 ------- 2 0.0 3.1 50 50
r 0.3295 0 2 cbr 500 ------- 2 0.0 3.1 91 91
+ 0.3295 2 3 cbr 500 ------- 2 0.0 3.1 91 91
- 0.3295 2 3 cbr 500 ------- 2 0.0 3.1 91 91
+ 0.33 0 2 cbr 500 ------- 2 0.0 3.1 132 132
- 0.33 0 2 cbr 500 ------- 2 0.0 3.1 132 132
r 0.3315 2 3 cbr 500 ------- 2 0.0 3.1 51 51
r 0.332 0 2 cbr 500 ------- 2 0.0 3.1 92 92
+ 0.332 2 3 cbr 500 ------- 2 0.0 3.1 92 92
- 0.332 2 3 cbr 500 ------- 2 0.0 3.1 92 92
+ 0.3325 0 2 cbr 500 ------- 2 0.0 3.1 133 133
- 0.3325 0 2 cbr 500 ------- 2 0.0 3.1 133 133
r 0.334 2 3 cbr 500 ------- 2 0.0 3.1 52 52
r 0.3345 0 2 cbr 500 ------- 2 0.0 3.1 93 93
+ 0.3345 2 3 cbr 500 ------- 2 0.0 3.1 93 93
- 0.3345 2 3 cbr 500 ------- 2 0.0 3.1 93 93
+ 0.335 0 2 cbr 500 ------- 2 0.0 3.1 134 134
- 0.335 0 2 cbr 500 ------- 2 0.0 3.1 134 134
r 0.3365 2 3 cbr 500 ------- 2 0.0 3.1 53 53
r 0.337 0 2 cbr 500 ------- 2 0.0 3.1 94 94
+ 0.337 2 3 cbr 500 ------- 2 0.0 3.1 94 94
- 0.337 2 3 cbr 500 ------- 2 0.0 3.1 94 94
+ 0.3375 0 2 cbr 500 ------- 2 0.0 3.1 135 135
- 0.3375 0 2 cbr 500 ------- 2 0.0 3.1 135 135
r 0.339 2 3 cbr 500 ------- 2 0.0 3.1 54 54
r 0.3395 0 2 cbr 500 ------- 2 0.0 3.1 95 95
+ 0.3395 2 3 cbr 500 ------- 2 0.0 3.1 95 95
- 0.3395 2 3 cbr 500 ------- 2 0.0 3.1 95 95
+ 0.34 0 2 cbr 500 ------- 2 0.0 3.1 136 136
- 0.34 0 2 cbr 500 ------- 2 0.0 3.1 136 136
r 0.3415 2 3 cbr 500 ------- 2 0.0 3.1 55 55
r 0.342 0 2 cbr 500 ------- 2 0.0 3.1 96 96
+ 0.342 2 3 cbr 500 ------- 2 0.0 3.1 96 96
- 0.342 2 3 cbr 500 ------- 2 0.0 3.1 96 96
+ 0.3425 0 2 cbr 500 ------- 2 0.0 3.1 137 137
- 0.3425 0 2 cbr 500 ------- 2 0.0 3.1 137 137
r 0.344 2 3 cbr 500 ------- 2 0.0 3.1 56 56
r 0.3445 0 2 cbr 500 ------- 2 0.0 3.1 97 97
+ 0.3445 2 3 cbr 500 ------- 2 0.0 3.1 97 97
- 0.3445 2 3 cbr 500 ------- 2 0.0 3.1 97 97
+ 0.345 0 2 cbr 500 ------- 2 0.0 3.1 138 138
- 0.345 0 2 cbr 500 ------- 2 0.0 3.1 138 138
r 0.3465 2 3 cbr 500 ------- 2 0.0 3.1 57 57
r 0.347 0 2 cbr 500 ------- 2 0.0 3.1 98 98
+ 0.347 2 3 cbr 500 ------- 2 0.0 3.1 98 98
- 0.347 2 3 cbr 500 ------- 2 0.0 3.1 98 98
+ 0.3475 0 2 cbr 500 ------- 2 0.0 3.1 139 139
- 0.3475 0 2 cbr 500 ------- 2 0.0 3.1 139 139
r 0.349 2 3 cbr 500 ------- 2 0.0 3.1 58 58
r 0.3495 0 2 cbr 500 ------- 2 0.0 3.1 99 99
+ 0.3495 2 3 cbr 500 ------- 2 0.0 3.1 99 99
- 0.3495 2 3 cbr 500 ------- 2 0.0 3.1 99 99
+ 0.35 0 2 cbr 500 ------- 2 0.0 3.1 140 140
- 0.35 0 2 cbr 500 ------- 2 0.0 3.1 140 140
r 0.3515 2 3 cbr 500 ------- 2 0.0 3.1 59 59
r 0.352 0 2 cbr 500 ------- 2 0.0 3.1 100 100
+ 0.352 2 3 cbr 500 ------- 2 0.0 3.1 100 100
- 0.352 2 3 cbr 500 ------- 2 0.0 3.1 100 100
+ 0.3525 0 2 cbr 500 ------- 2 0.0 3.1 141 141
- 0.3525 0 2 cbr 500 ------- 2 0.0 3.1 141 141
r 0.354 2 3 cbr 500 ------- 2 0.0 3.1 60 60
r 0.3545 0 2 cbr 500 ------- 2 0.0 3.1 101 101
+ 0.3545 2 3 cbr 500 ------- 2 0.0 3.1 101 101
- 0.3545 2 3 cbr 500 ------- 2 0.0 3.1 101 101
+ 0.355 0 2 cbr 500 ------- 2 0.0 3.1 142 142
- 0.355 0 2 cbr 500 ------- 2 0.0 3.1 142 142
r 0.3565 2 3 cbr 500 ------- 2 0.0 3.1 61 61
r 0.357 0 2 cbr 500 ------- 2 0.0 3.1 102 102
+ 0.357 2 3 cbr 500 ------- 2 0.0 3.1 102 102
- 0.357 2 3 cbr 500 ------- 2 0.0 3.1 102 102
+ 0.3575 0 2 cbr 500 ------- 2 0.0 3.1 143 143
- 0.3575 0 2 cbr 500 ------- 2 0.0 3.1 143 143
r 0.359 2 3 cbr 500 ------- 2 0.0 3.1 62 62
r 0.3595 0 2 cbr 500 ------- 2 0.0 3.1 103 103
+ 0.3595 2 3 cbr 500 ------- 2 0.0 3.1 103 103
- 0.3595 2 3 cbr 500 ------- 2 0.0 3.1 103 103
+ 0.36 0 2 cbr 500 ------- 2 0.0 3.1 144 144
- 0.36 0 2 cbr 500 ------- 2 0.0 3.1 144 144
r 0.3615 2 3 cbr 500 ------- 2 0.0 3.1 63 63
r 0.362 0 2 cbr 500 ------- 2 0.0 3.1 104 104
+ 0.362 2 3 cbr 500 ------- 2 0.0 3.1 104 104
- 0.362 2 3 cbr 500 ------- 2 0.0 3.1 104 104
+ 0.3625 0 2 cbr 500 ------- 2 0.0 3.1 145 145
- 0.3625 0 2 cbr 500 ------- 2 0.0 3.1 145 145
r 0.364 2 3 cbr 500 ------- 2 0.0 3.1 64 64
r 0.3645 0 2 cbr 500 ------- 2 0.0 3.1 105 105