V -t * -v 1.0a5 -a 0
A -t * -n 1 -p 0 -o 0x7fffffff -c 30 -a 1
A -t * -h 1 -m 1073741823 -s 0
c -t * -i 1 -n Red
n -t * -a 4 -s 4 -S UP -v circle -c black -i black
n -t * -a 0 -s 0 -S UP -v circle -c black -i black
n -t * -a 5 -s 5 -S UP -v circle -c black -i black
n -t * -a 1 -s 1 -S UP -v circle -c black -i black
n -t * -a 6 -s 6 -S UP -v circle -c black -i black
n -t * -a 2 -s 2 -S UP -v circle -c black -i black
n -t * -a 3 -s 3 -S UP -v circle -c black -i black
l -t * -s 0 -d 1 -S UP -r 1000000 -D 0.01 -c black
l -t * -s 1 -d 2 -S UP -r 1000000 -D 0.01 -c black
l -t * -s 2 -d 3 -S UP -r 1000000 -D 0.01 -c black
l -t * -s 3 -d 4 -S UP -r 1000000 -D 0.01 -c black
l -t * -s 4 -d 5 -S UP -r 1000000 -D 0.01 -c black
l -t * -s 5 -d 6 -S UP -r 1000000 -D 0.01 -c black
l -t * -s 6 -d 0 -S UP -r 1000000 -D 0.01 -c black
+ -t 0.000169788487334637 -s 0 -d 1 -p rtProtoDV -e 7 -c 0 -i 1 -a 0 -x {0.2 1.1 -1 ------- null}
- -t 0.000169788487334637 -s 0 -d 1 -p rtProtoDV -e 7 -c 0 -i 1 -a 0 -x {0.2 1.1 -1 ------- null}
h -t 0.000169788487334637 -s 0 -d 1 -p rtProtoDV -e 7 -c 0 -i 1 -a 0 -x {0.2 1.1 -1 ------- null}
+ -t 0.000169788487334637 -s 0 -d 6 -p rtProtoDV -e 7 -c 0 -i 2 -a 0 -x {0.2 6.1 -1 ------- null}
- -t 0.000169788487334637 -s 0 -d 6 -p rtProtoDV -e 7 -c 0 -i 2 -a 0 -x {0.2 6.1 -1 ------- null}
h -t 0.000169788487334637 -s 0 -d 6 -p rtProtoDV -e 7 -c 0 -i 2 -a 0 -x {0.2 6.1 -1 ------- null}
+ -t 0.00710233021858257 -s 2 -d 1 -p rtProtoDV -e 7 -c 0 -i 4 -a 0 -x {2.1 1.1 -1 ------- null}
- -t 0.00710233021858257 -s 2 -d 1 -p rtProtoDV -e 7 -c 0 -i 4 -a 0 -x {2.1 1.1 -1 ------- null}
h -t 0.00710233021858257 -s 2 -d 1 -p rtProtoDV -e 7 -c 0 -i 4 -a 0 -x {2.1 1.1 -1 ------- null}
+ -t 0.00710233021858257 -s 2 -d 3 -p rtProtoDV -e 7 -c 0 -i 5 -a 0 -x {2.1 3.2 -1 ------- null}
- -t 0.00710233021858257 -s 2 -d 3 -p rtProtoDV -e 7 -c 0 -i 5 -a 0 -x {2.1 3.2 -1 ------- null}
h -t 0.00710233021858257 -s 2 -d 3 -p rtProtoDV -e 7 -c 0 -i 5 -a 0 -x {2.1 3.2 -1 ------- null}
r -t 0.0102257884873346 -s 0 -d 1 -p rtProtoDV -e 7 -c 0 -i 1 -a 0 -x {0.2 1.1 -1 ------- null}
+ -t 0.0102257884873346 -s 1 -d 0 -p rtProtoDV -e 7 -c 0 -i 7 -a 0 -x {1.1 0.2 -1 ------- null}
- -t 0.0102257884873346 -s 1 -d 0 -p rtProtoDV -e 7 -c 0 -i 7 -a 0 -x {1.1 0.2 -1 ------- null}
h -t 0.0102257884873346 -s 1 -d 0 -p rtProtoDV -e 7 -c 0 -i 7 -a 0 -x {1.1 0.2 -1 ------- null}
+ -t 0.0102257884873346 -s 1 -d 2 -p rtProtoDV -e 7 -c 0 -i 8 -a 0 -x {1.1 2.1 -1 ------- null}
- -t 0.0102257884873346 -s 1 -d 2 -p rtProtoDV -e 7 -c 0 -i 8 -a 0 -x {1.1 2.1 -1 ------- null}
h -t 0.0102257884873346 -s 1 -d 2 -p rtProtoDV -e 7 -c 0 -i 8 -a 0 -x {1.1 2.1 -1 ------- null}
r -t 0.0102257884873346 -s 0 -d 6 -p rtProtoDV -e 7 -c 0 -i 2 -a 0 -x {0.2 6.1 -1 ------- null}
+ -t 0.0102257884873346 -s 6 -d 0 -p rtProtoDV -e 7 -c 0 -i 9 -a 0 -x {6.1 0.2 -1 ------- null}
- -t 0.0102257884873346 -s 6 -d 0 -p rtProtoDV -e 7 -c 0 -i 9 -a 0 -x {6.1 0.2 -1 ------- null}
h -t 0.0102257884873346 -s 6 -d 0 -p rtProtoDV -e 7 -c 0 -i 9 -a 0 -x {6.1 0.2 -1 ------- null}
+ -t 0.0102257884873346 -s 6 -d 5 -p rtProtoDV -e 7 -c 0 -i 10 -a 0 -x {6.1 5.1 -1 ------- null}
- -t 0.0102257884873346 -s 6 -d 5 -p rtProtoDV -e 7 -c 0 -i 10 -a 0 -x {6.1 5.1 -1 ------- null}
h -t 0.0102257884873346 -s 6 -d 5 -p rtProtoDV -e 7 -c 0 -i 10 -a 0 -x {6.1 5.1 -1 ------- null}
r -t 0.0171583302185826 -s 2 -d 1 -p rtProtoDV -e 7 -c 0 -i 4 -a 0 -x {2.1 1.1 -1 ------- null}
r -t 0.0171583302185826 -s 2 -d 3 -p rtProtoDV -e 7 -c 0 -i 5 -a 0 -x {2.1 3.2 -1 ------- null}
r -t 0.0202817884873346 -s 1 -d 0 -p rtProtoDV -e 7 -c 0 -i 7 -a 0 -x {1.1 0.2 -1 ------- null}
r -t 0.0202817884873346 -s 1 -d 2 -p rtProtoDV -e 7 -c 0 -i 8 -a 0 -x {1.1 2.1 -1 ------- null}
r -t 0.0202817884873346 -s 6 -d 0 -p rtProtoDV -e 7 -c 0 -i 9 -a 0 -x {6.1 0.2 -1 ------- null}
+ -t 0.0202817884873346 -s 0 -d 1 -p rtProtoDV -e 7 -c 0 -i 14 -a 0 -x {0.2 1.1 -1 ------- null}
- -t 0.0202817884873346 -s 0 -d 1 -p rtProtoDV -e 7 -c 0 -i 14 -a 0 -x {0.2 1.1 -1 ------- null}
h -t 0.0202817884873346 -s 0 -d 1 -p rtProtoDV -e 7 -c 0 -i 14 -a 0 -x {0.2 1.1 -1 ------- null}
+ -t 0.0202817884873346 -s 0 -d 6 -p rtProtoDV -e 7 -c 0 -i 15 -a 0 -x {0.2 6.1 -1 ------- null}
- -t 0.0202817884873346 -s 0 -d 6 -p rtProtoDV -e 7 -c 0 -i 15 -a 0 -x {0.2 6.1 -1 ------- null}
h -t 0.0202817884873346 -s 0 -d 6 -p rtProtoDV -e 7 -c 0 -i 15 -a 0 -x {0.2 6.1 -1 ------- null}
r -t 0.0202817884873346 -s 6 -d 5 -p rtProtoDV -e 7 -c 0 -i 10 -a 0 -x {6.1 5.1 -1 ------- null}
+ -t 0.0202817884873346 -s 5 -d 4 -p rtProtoDV -e 7 -c 0 -i 16 -a 0 -x {5.1 4.1 -1 ------- null}
- -t 0.0202817884873346 -s 5 -d 4 -p rtProtoDV -e 7 -c 0 -i 16 -a 0 -x {5.1 4.1 -1 ------- null}
h -t 0.0202817884873346 -s 5 -d 4 -p rtProtoDV -e 7 -c 0 -i 16 -a 0 -x {5.1 4.1 -1 ------- null}
+ -t 0.0202817884873346 -s 5 -d 6 -p rtProtoDV -e 7 -c 0 -i 17 -a 0 -x {5.1 6.1 -1 ------- null}
- -t 0.0202817884873346 -s 5 -d 6 -p rtProtoDV -e 7 -c 0 -i 17 -a 0 -x {5.1 6.1 -1 ------- null}
h -t 0.0202817884873346 -s 5 -d 6 -p rtProtoDV -e 7 -c 0 -i 17 -a 0 -x {5.1 6.1 -1 ------- null}
r -t 0.0303377884873346 -s 0 -d 1 -p rtProtoDV -e 7 -c 0 -i 14 -a 0 -x {0.2 1.1 -1 ------- null}
+ -t 0.0303377884873346 -s 1 -d 0 -p rtProtoDV -e 7 -c 0 -i 21 -a 0 -x {1.1 0.2 -1 ------- null}
- -t 0.0303377884873346 -s 1 -d 0 -p rtProtoDV -e 7 -c 0 -i 21 -a 0 -x {1.1 0.2 -1 ------- null}
h -t 0.0303377884873346 -s 1 -d 0 -p rtProtoDV -e 7 -c 0 -i 21 -a 0 -x {1.1 0.2 -1 ------- null}
+ -t 0.0303377884873346 -s 1 -d 2 -p rtProtoDV -e 7 -c 0 -i 22 -a 0 -x {1.1 2.1 -1 ------- null}
- -t 0.0303377884873346 -s 1 -d 2 -p rtProtoDV -e 7 -c 0 -i 22 -a 0 -x {1.1 2.1 -1 ------- null}
h -t 0.0303377884873346 -s 1 -d 2 -p rtProtoDV -e 7 -c 0 -i 22 -a 0 -x {1.1 2.1 -1 ------- null}
r -t 0.0303377884873346 -s 0 -d 6 -p rtProtoDV -e 7 -c 0 -i 15 -a 0 -x {0.2 6.1 -1 ------- null}
r -t 0.0303377884873346 -s 5 -d 4 -p rtProtoDV -e 7 -c 0 -i 16 -a 0 -x {5.1 4.1 -1 ------- null}
+ -t 0.0303377884873346 -s 4 -d 3 -p rtProtoDV -e 7 -c 0 -i 23 -a 0 -x {4.1 3.2 -1 ------- null}
- -t 0.0303377884873346 -s 4 -d 3 -p rtProtoDV -e 7 -c 0 -i 23 -a 0 -x {4.1 3.2 -1 ------- null}
h -t 0.0303377884873346 -s 4 -d 3 -p rtProtoDV -e 7 -c 0 -i 23 -a 0 -x {4.1 3.2 -1 ------- null}
+ -t 0.0303377884873346 -s 4 -d 5 -p rtProtoDV -e 7 -c 0 -i 24 -a 0 -x {4.1 5.1 -1 ------- null}
- -t 0.0303377884873346 -s 4 -d 5 -p rtProtoDV -e 7 -c 0 -i 24 -a 0 -x {4.1 5.1 -1 ------- null}
h -t 0.0303377884873346 -s 4 -d 5 -p rtProtoDV -e 7 -c 0 -i 24 -a 0 -x {4.1 5.1 -1 ------- null}
r -t 0.0303377884873346 -s 5 -d 6 -p rtProtoDV -e 7 -c 0 -i 17 -a 0 -x {5.1 6.1 -1 ------- null}
+ -t 0.0303377884873346 -s 6 -d 0 -p rtProtoDV -e 7 -c 0 -i 25 -a 0 -x {6.1 0.2 -1 ------- null}
- -t 0.0303377884873346 -s 6 -d 0 -p rtProtoDV -e 7 -c 0 -i 25 -a 0 -x {6.1 0.2 -1 ------- null}
h -t 0.0303377884873346 -s 6 -d 0 -p rtProtoDV -e 7 -c 0 -i 25 -a 0 -x {6.1 0.2 -1 ------- null}
+ -t 0.0303377884873346 -s 6 -d 5 -p rtProtoDV -e 7 -c 0 -i 26 -a 0 -x {6.1 5.1 -1 ------- null}
- -t 0.0303377884873346 -s 6 -d 5 -p rtProtoDV -e 7 -c 0 -i 26 -a 0 -x {6.1 5.1 -1 ------- null}
h -t 0.0303377884873346 -s 6 -d 5 -p rtProtoDV -e 7 -c 0 -i 26 -a 0 -x {6.1 5.1 -1 ------- null}
r -t 0.0403937884873346 -s 1 -d 0 -p rtProtoDV -e 7 -c 0 -i 21 -a 0 -x {1.1 0.2 -1 ------- null}
r -t 0.0403937884873346 -s 1 -d 2 -p rtProtoDV -e 7 -c 0 -i 22 -a 0 -x {1.1 2.1 -1 ------- null}
r -t 0.0403937884873346 -s 4 -d 3 -p rtProtoDV -e 7 -c 0 -i 23 -a 0 -x {4.1 3.2 -1 ------- null}
+ -t 0.0403937884873346 -s 3 -d 2 -p rtProtoDV -e 7 -c 0 -i 29 -a 0 -x {3.2 2.1 -1 ------- null}
- -t 0.0403937884873346 -s 3 -d 2 -p rtProtoDV -e 7 -c 0 -i 29 -a 0 -x {3.2 2.1 -1 ------- null}
h -t 0.0403937884873346 -s 3 -d 2 -p rtProtoDV -e 7 -c 0 -i 29 -a 0 -x {3.2 2.1 -1 ------- null}
+ -t 0.0403937884873346 -s 3 -d 4 -p rtProtoDV -e 7 -c 0 -i 30 -a 0 -x {3.2 4.1 -1 ------- null}
- -t 0.0403937884873346 -s 3 -d 4 -p rtProtoDV -e 7 -c 0 -i 30 -a 0 -x {3.2 4.1 -1 ------- null}
h -t 0.0403937884873346 -s 3 -d 4 -p rtProtoDV -e 7 -c 0 -i 30 -a 0 -x {3.2 4.1 -1 ------- null}
r -t 0.0403937884873346 -s 4 -d 5 -p rtProtoDV -e 7 -c 0 -i 24 -a 0 -x {4.1 5.1 -1 ------- null}
+ -t 0.0403937884873346 -s 5 -d 4 -p rtProtoDV -e 7 -c 0 -i 31 -a 0 -x {5.1 4.1 -1 ------- null}
- -t 0.0403937884873346 -s 5 -d 4 -p rtProtoDV -e 7 -c 0 -i 31 -a 0 -x {5.1 4.1 -1 ------- null}
h -t 0.0403937884873346 -s 5 -d 4 -p rtProtoDV -e 7 -c 0 -i 31 -a 0 -x {5.1 4.1 -1 ------- null}
+ -t 0.0403937884873346 -s 5 -d 6 -p rtProtoDV -e 7 -c 0 -i 32 -a 0 -x {5.1 6.1 -1 ------- null}
- -t 0.0403937884873346 -s 5 -d 6 -p rtProtoDV -e 7 -c 0 -i 32 -a 0 -x {5.1 6.1 -1 ------- null}
h -t 0.0403937884873346 -s 5 -d 6 -p rtProtoDV -e 7 -c 0 -i 32 -a 0 -x {5.1 6.1 -1 ------- null}
r -t 0.0403937884873346 -s 6 -d 0 -p rtProtoDV -e 7 -c 0 -i 25 -a 0 -x {6.1 0.2 -1 ------- null}
+ -t 0.0403937884873346 -s 0 -d 1 -p rtProtoDV -e 7 -c 0 -i 33 -a 0 -x {0.2 1.1 -1 ------- null}
- -t 0.0403937884873346 -s 0 -d 1 -p rtProtoDV -e 7 -c 0 -i 33 -a 0 -x {0.2 1.1 -1 ------- null}
h -t 0.0403937884873346 -s 0 -d 1 -p rtProtoDV -e 7 -c 0 -i 33 -a 0 -x {0.2 1.1 -1 ------- null}
+ -t 0.0403937884873346 -s 0 -d 6 -p rtProtoDV -e 7 -c 0 -i 34 -a 0 -x {0.2 6.1 -1 ------- null}
- -t 0.0403937884873346 -s 0 -d 6 -p rtProtoDV -e 7 -c 0 -i 34 -a 0 -x {0.2 6.1 -1 ------- null}
h -t 0.0403937884873346 -s 0 -d 6 -p rtProtoDV -e 7 -c 0 -i 34 -a 0 -x {0.2 6.1 -1 ------- null}
r -t 0.0403937884873346 -s 6 -d 5 -p rtProtoDV -e 7 -c 0 -i 26 -a 0 -x {6.1 5.1 -1 ------- null}
+ -t 0.04406133552271 -s 3 -d 2 -p rtProtoDV -e 7 -c 0 -i 36 -a 0 -x {3.2 2.1 -1 ------- null}
- -t 0.04406133552271 -s 3 -d 2 -p rtProtoDV -e 7 -c 0 -i 36 -a 0 -x {3.2 2.1 -1 ------- null}
h -t 0.04406133552271 -s 3 -d 2 -p rtProtoDV -e 7 -c 0 -i 36 -a 0 -x {3.2 2.1 -1 ------- null}
+ -t 0.04406133552271 -s 3 -d 4 -p rtProtoDV -e 7 -c 0 -i 37 -a 0 -x {3.2 4.1 -1 ------- null}
- -t 0.04406133552271 -s 3 -d 4 -p rtProtoDV -e 7 -c 0 -i 37 -a 0 -x {3.2 4.1 -1 ------- null}
h -t 0.04406133552271 -s 3 -d 4 -p rtProtoDV -e 7 -c 0 -i 37 -a 0 -x {3.2 4.1 -1 ------- null}
r -t 0.0504497884873346 -s 3 -d 2 -p rtProtoDV -e 7 -c 0 -i 29 -a 0 -x {3.2 2.1 -1 ------- null}
+ -t 0.0504497884873346 -s 2 -d 1 -p rtProtoDV -e 7 -c 0 -i 40 -a 0 -x {2.1 1.1 -1 ------- null}
- -t 0.0504497884873346 -s 2 -d 1 -p rtProtoDV -e 7 -c 0 -i 40 -a 0 -x {2.1 1.1 -1 ------- null}
h -t 0.0504497884873346 -s 2 -d 1 -p rtProtoDV -e 7 -c 0 -i 40 -a 0 -x {2.1 1.1 -1 ------- null}
+ -t 0.0504497884873346 -s 2 -d 3 -p rtProtoDV -e 7 -c 0 -i 41 -a 0 -x {2.1 3.2 -1 ------- null}
- -t 0.0504497884873346 -s 2 -d 3 -p rtProtoDV -e 7 -c 0 -i 41 -a 0 -x {2.1 3.2 -1 ------- null}
h -t 0.0504497884873346 -s 2 -d 3 -p rtProtoDV -e 7 -c 0 -i 41 -a 0 -x {2.1 3.2 -1 ------- null}
r -t 0.0504497884873346 -s 3 -d 4 -p rtProtoDV -e 7 -c 0 -i 30 -a 0 -x {3.2 4.1 -1 ------- null}
+ -t 0.0504497884873346 -s 4 -d 3 -p rtProtoDV -e 7 -c 0 -i 42 -a 0 -x {4.1 3.2 -1 ------- null}
- -t 0.0504497884873346 -s 4 -d 3 -p rtProtoDV -e 7 -c 0 -i 42 -a 0 -x {4.1 3.2 -1 ------- null}
h -t 0.0504497884873346 -s 4 -d 3 -p rtProtoDV -e 7 -c 0 -i 42 -a 0 -x {4.1 3.2 -1 ------- null}
+ -t 0.0504497884873346 -s 4 -d 5 -p rtProtoDV -e 7 -c 0 -i 43 -a 0 -x {4.1 5.1 -1 ------- null}
- -t 0.0504497884873346 -s 4 -d 5 -p rtProtoDV -e 7 -c 0 -i 43 -a 0 -x {4.1 5.1 -1 ------- null}
h -t 0.0504497884873346 -s 4 -d 5 -p rtProtoDV -e 7 -c 0 -i 43 -a 0 -x {4.1 5.1 -1 ------- null}
r -t 0.0504497884873346 -s 5 -d 4 -p rtProtoDV -e 7 -c 0 -i 31 -a 0 -x {5.1 4.1 -1 ------- null}
r -t 0.0504497884873346 -s 5 -d 6 -p rtProtoDV -e 7 -c 0 -i 32 -a 0 -x {5.1 6.1 -1 ------- null}
+ -t 0.0504497884873346 -s 6 -d 0 -p rtProtoDV -e 7 -c 0 -i 44 -a 0 -x {6.1 0.2 -1 ------- null}
- -t 0.0504497884873346 -s 6 -d 0 -p rtProtoDV -e 7 -c 0 -i 44 -a 0 -x {6.1 0.2 -1 ------- null}
h -t 0.0504497884873346 -s 6 -d 0 -p rtProtoDV -e 7 -c 0 -i 44 -a 0 -x {6.1 0.2 -1 ------- null}
+ -t 0.0504497884873346 -s 6 -d 5 -p rtProtoDV -e 7 -c 0 -i 45 -a 0 -x {6.1 5.1 -1 ------- null}
- -t 0.0504497884873346 -s 6 -d 5 -p rtProtoDV -e 7 -c 0 -i 45 -a 0 -x {6.1 5.1 -1 ------- null}
h -t 0.0504497884873346 -s 6 -d 5 -p rtProtoDV -e 7 -c 0 -i 45 -a 0 -x {6.1 5.1 -1 ------- null}
r -t 0.0504497884873346 -s 0 -d 1 -p rtProtoDV -e 7 -c 0 -i 33 -a 0 -x {0.2 1.1 -1 ------- null}
+ -t 0.0504497884873346 -s 1 -d 0 -p rtProtoDV -e 7 -c 0 -i 46 -a 0 -x {1.1 0.2 -1 ------- null}
- -t 0.0504497884873346 -s 1 -d 0 -p rtProtoDV -e 7 -c 0 -i 46 -a 0 -x {1.1 0.2 -1 ------- null}
h -t 0.0504497884873346 -s 1 -d 0 -p rtProtoDV -e 7 -c 0 -i 46 -a 0 -x {1.1 0.2 -1 ------- null}
+ -t 0.0504497884873346 -s 1 -d 2 -p rtProtoDV -e 7 -c 0 -i 47 -a 0 -x {1.1 2.1 -1 ------- null}
- -t 0.0504497884873346 -s 1 -d 2 -p rtProtoDV -e 7 -c 0 -i 47 -a 0 -x {1.1 2.1 -1 ------- null}
h -t 0.0504497884873346 -s 1 -d 2 -p rtProtoDV -e 7 -c 0 -i 47 -a 0 -x {1.1 2.1 -1 ------- null}
r -t 0.0504497884873346 -s 0 -d 6 -p rtProtoDV -e 7 -c 0 -i 34 -a 0 -x {0.2 6.1 -1 ------- null}
r -t 0.05411733552271 -s 3 -d 2 -p rtProtoDV -e 7 -c 0 -i 36 -a 0 -x {3.2 2.1 -1 ------- null}
r -t 0.05411733552271 -s 3 -d 4 -p rtProtoDV -e 7 -c 0 -i 37 -a 0 -x {3.2 4.1 -1 ------- null}
r -t 0.0605057884873346 -s 2 -d 1 -p rtProtoDV -e 7 -c 0 -i 40 -a 0 -x {2.1 1.1 -1 ------- null}
r -t 0.0605057884873346 -s 2 -d 3 -p rtProtoDV -e 7 -c 0 -i 41 -a 0 -x {2.1 3.2 -1 ------- null}
r -t 0.0605057884873346 -s 4 -d 3 -p rtProtoDV -e 7 -c 0 -i 42 -a 0 -x {4.1 3.2 -1 ------- null}
r -t 0.0605057884873346 -s 4 -d 5 -p rtProtoDV -e 7 -c 0 -i 43 -a 0 -x {4.1 5.1 -1 ------- null}
+ -t 0.0605057884873346 -s 5 -d 4 -p rtProtoDV -e 7 -c 0 -i 51 -a 0 -x {5.1 4.1 -1 ------- null}
- -t 0.0605057884873346 -s 5 -d 4 -p rtProtoDV -e 7 -c 0 -i 51 -a 0 -x {5.1 4.1 -1 ------- null}
h -t 0.0605057884873346 -s 5 -d 4 -p rtProtoDV -e 7 -c 0 -i 51 -a 0 -x {5.1 4.1 -1 ------- null}
+ -t 0.0605057884873346 -s 5 -d 6 -p rtProtoDV -e 7 -c 0 -i 52 -a 0 -x {5.1 6.1 -1 ------- null}
- -t 0.0605057884873346 -s 5 -d 6 -p rtProtoDV -e 7 -c 0 -i 52 -a 0 -x {5.1 6.1 -1 ------- null}
h -t 0.0605057884873346 -s 5 -d 6 -p rtProtoDV -e 7 -c 0 -i 52 -a 0 -x {5.1 6.1 -1 ------- null}
r -t 0.0605057884873346 -s 6 -d 0 -p rtProtoDV -e 7 -c 0 -i 44 -a 0 -x {6.1 0.2 -1 ------- null}
+ -t 0.0605057884873346 -s 0 -d 1 -p rtProtoDV -e 7 -c 0 -i 53 -a 0 -x {0.2 1.1 -1 ------- null}
- -t 0.0605057884873346 -s 0 -d 1 -p rtProtoDV -e 7 -c 0 -i 53 -a 0 -x {0.2 1.1 -1 ------- null}
h -t 0.0605057884873346 -s 0 -d 1 -p rtProtoDV -e 7 -c 0 -i 53 -a 0 -x {0.2 1.1 -1 ------- null}
+ -t 0.0605057884873346 -s 0 -d 6 -p rtProtoDV -e 7 -c 0 -i 54 -a 0 -x {0.2 6.1 -1 ------- null}
- -t 0.0605057884873346 -s 0 -d 6 -p rtProtoDV -e 7 -c 0 -i 54 -a 0 -x {0.2 6.1 -1 ------- null}
h -t 0.0605057884873346 -s 0 -d 6 -p rtProtoDV -e 7 -c 0 -i 54 -a 0 -x {0.2 6.1 -1 ------- null}
r -t 0.0605057884873346 -s 6 -d 5 -p rtProtoDV -e 7 -c 0 -i 45 -a 0 -x {6.1 5.1 -1 ------- null}
r -t 0.0605057884873346 -s 1 -d 0 -p rtProtoDV -e 7 -c 0 -i 46 -a 0 -x {1.1 0.2 -1 ------- null}
r -t 0.0605057884873346 -s 1 -d 2 -p rtProtoDV -e 7 -c 0 -i 47 -a 0 -x {1.1 2.1 -1 ------- null}
+ -t 0.06375 -s 0 -d 6 -p cbr -e 210 -c 0 -i 55 -a 0 -x {0.0 3.0 17 ------- null}
- -t 0.06375 -s 0 -d 6 -p cbr -e 210 -c 0 -i 55 -a 0 -x {0.0 3.0 17 ------- null}
h -t 0.06375 -s 0 -d 6 -p cbr -e 210 -c 0 -i 55 -a 0 -x {0.0 3.0 -1 ------- null}
+ -t 0.0675 -s 0 -d 6 -p cbr -e 210 -c 0 -i 56 -a 0 -x {0.0 3.0 18 ------- null}
- -t 0.0675 -s 0 -d 6 -p cbr -e 210 -c 0 -i 56 -a 0 -x {0.0 3.0 18 ------- null}
h -t 0.0675 -s 0 -d 6 -p cbr -e 210 -c 0 -i 56 -a 0 -x {0.0 3.0 -1 ------- null}
r -t 0.0705617884873346 -s 5 -d 4 -p rtProtoDV -e 7 -c 0 -i 51 -a 0 -x {5.1 4.1 -1 ------- null}
r -t 0.0705617884873346 -s 5 -d 6 -p rtProtoDV -e 7 -c 0 -i 52 -a 0 -x {5.1 6.1 -1 ------- null}
+ -t 0.0705617884873346 -s 6 -d 0 -p rtProtoDV -e 7 -c 0 -i 57 -a 0 -x {6.1 0.2 -1 ------- null}
- -t 0.0705617884873346 -s 6 -d 0 -p rtProtoDV -e 7 -c 0 -i 57 -a 0 -x {6.1 0.2 -1 ------- null}
h -t 0.0705617884873346 -s 6 -d 0 -p rtProtoDV -e 7 -c 0 -i 57 -a 0 -x {6.1 0.2 -1 ------- null}
+ -t 0.0705617884873346 -s 6 -d 5 -p rtProtoDV -e 7 -c 0 -i 58 -a 0 -x {6.1 5.1 -1 ------- null}
- -t 0.0705617884873346 -s 6 -d 5 -p rtProtoDV -e 7 -c 0 -i 58 -a 0 -x {6.1 5.1 -1 ------- null}
h -t 0.0705617884873346 -s 6 -d 5 -p rtProtoDV -e 7 -c 0 -i 58 -a 0 -x {6.1 5.1 -1 ------- null}
r -t 0.0705617884873346 -s 0 -d 1 -p rtProtoDV -e 7 -c 0 -i 53 -a 0 -x {0.2 1.1 -1 ------- null}
+ -t 0.0705617884873346 -s 1 -d 0 -p rtProtoDV -e 7 -c 0 -i 59 -a 0 -x {1.1 0.2 -1 ------- null}
- -t 0.0705617884873346 -s 1 -d 0 -p rtProtoDV -e 7 -c 0 -i 59 -a 0 -x {1.1 0.2 -1 ------- null}
h -t 0.0705617884873346 -s 1 -d 0 -p rtProtoDV -e 7 -c 0 -i 59 -a 0 -x {1.1 0.2 -1 ------- null}
+ -t 0.0705617884873346 -s 1 -d 2 -p rtProtoDV -e 7 -c 0 -i 60 -a 0 -x {1.1 2.1 -1 ------- null}
- -t 0.0705617884873346 -s 1 -d 2 -p rtProtoDV -e 7 -c 0 -i 60 -a 0 -x {1.1 2.1 -1 ------- null}
h -t 0.0705617884873346 -s 1 -d 2 -p rtProtoDV -e 7 -c 0 -i 60 -a 0 -x {1.1 2.1 -1 ------- null}
r -t 0.0705617884873346 -s 0 -d 6 -p rtProtoDV -e 7 -c 0 -i 54 -a 0 -x {0.2 6.1 -1 ------- null}
+ -t 0.07125 -s 0 -d 6 -p cbr -e 210 -c 0 -i 61 -a 0 -x {0.0 3.0 19 ------- null}
- -t 0.07125 -s 0 -d 6 -p cbr -e 210 -c 0 -i 61 -a 0 -x {0.0 3.0 19 ------- null}
h -t 0.07125 -s 0 -d 6 -p cbr -e 210 -c 0 -i 61 -a 0 -x {0.0 3.0 -1 ------- null}
+ -t 0.075 -s 0 -d 6 -p cbr -e 210 -c 0 -i 62 -a 0 -x {0.0 3.0 20 ------- null}
- -t 0.075 -s 0 -d 6 -p cbr -e 210 -c 0 -i 62 -a 0 -x {0.0 3.0 20 ------- null}
h -t 0.075 -s 0 -d 6 -p cbr -e 210 -c 0 -i 62 -a 0 -x {0.0 3.0 -1 ------- null}
r -t 0.07543 -s 0 -d 6 -p cbr -e 210 -c 0 -i 55 -a 0 -x {0.0 3.0 17 ------- null}
+ -t 0.07543 -s 6 -d 5 -p cbr -e 210 -c 0 -i 55 -a 0 -x {0.0 3.0 17 ------- null}
- -t 0.07543 -s 6 -d 5 -p cbr -e 210 -c 0 -i 55 -a 0 -x {0.0 3.0 17 ------- null}
h -t 0.07543 -s 6 -d 5 -p cbr -e 210 -c 0 -i 55 -a 0 -x {0.0 3.0 -1 ------- null}
+ -t 0.07875 -s 0 -d 6 -p cbr -e 210 -c 0 -i 63 -a 0 -x {0.0 3.0 21 ------- null}
- -t 0.07875 -s 0 -d 6 -p cbr -e 210 -c 0 -i 63 -a 0 -x {0.0 3.0 21 ------- null}
h -t 0.07875 -s 0 -d 6 -p cbr -e 210 -c 0 -i 63 -a 0 -x {0.0 3.0 -1 ------- null}
r -t 0.07918 -s 0 -d 6 -p cbr -e 210 -c 0 -i 56 -a 0 -x {0.0 3.0 18 ------- null}
+ -t 0.07918 -s 6 -d 5 -p cbr -e 210 -c 0 -i 56 -a 0 -x {0.0 3.0 18 ------- null}
- -t 0.07918 -s 6 -d 5 -p cbr -e 210 -c 0 -i 56 -a 0 -x {0.0 3.0 18 ------- null}
h -t 0.07918 -s 6 -d 5 -p cbr -e 210 -c 0 -i 56 -a 0 -x {0.0 3.0 -1 ------- null}
r -t 0.0806177884873346 -s 6 -d 0 -p rtProtoDV -e 7 -c 0 -i 57 -a 0 -x {6.1 0.2 -1 ------- null}
+ -t 0.0806177884873346 -s 0 -d 1 -p rtProtoDV -e 7 -c 0 -i 64 -a 0 -x {0.2 1.1 -1 ------- null}
- -t 0.0806177884873346 -s 0 -d 1 -p rtProtoDV -e 7 -c 0 -i 64 -a 0 -x {0.2 1.1 -1 ------- null}
h -t 0.0806177884873346 -s 0 -d 1 -p rtProtoDV -e 7 -c 0 -i 64 -a 0 -x {0.2 1.1 -1 ------- null}
+ -t 0.0806177884873346 -s 0 -d 6 -p rtProtoDV -e 7 -c 0 -i 65 -a 0 -x {0.2 6.1 -1 ------- null}
- -t 0.0806177884873346 -s 0 -d 6 -p rtProtoDV -e 7 -c 0 -i 65 -a 0 -x {0.2 6.1 -1 ------- null}
h -t 0.0806177884873346 -s 0 -d 6 -p rtProtoDV -e 7 -c 0 -i 65 -a 0 -x {0.2 6.1 -1 ------- null}
r -t 0.0806177884873346 -s 6 -d 5 -p rtProtoDV -e 7 -c 0 -i 58 -a 0 -x {6.1 5.1 -1 ------- null}
r -t 0.0806177884873346 -s 1 -d 0 -p rtProtoDV -e 7 -c 0 -i 59 -a 0 -x {1.1 0.2 -1 ------- null}
r -t 0.0806177884873346 -s 1 -d 2 -p rtProtoDV -e 7 -c 0 -i 60 -a 0 -x {1.1 2.1 -1 ------- null}
+ -t 0.0825 -s 0 -d 6 -p cbr -e 210 -c 0 -i 66 -a 0 -x {0.0 3.0 22 ------- null}
- -t 0.0825 -s 0 -d 6 -p cbr -e 210 -c 0 -i 66 -a 0 -x {0.0 3.0 22 ------- null}
h -t 0.0825 -s 0 -d 6 -p cbr -e 210 -c 0 -i 66 -a 0 -x {0.0 3.0 -1 ------- null}
r -t 0.08293 -s 0 -d 6 -p cbr -e 210 -c 0 -i 61 -a 0 -x {0.0 3.0 19 ------- null}
+ -t 0.08293 -s 6 -d 5 -p cbr -e 210 -c 0 -i 61 -a 0 -x {0.0 3.0 19 ------- null}
- -t 0.08293 -s 6 -d 5 -p cbr -e 210 -c 0 -i 61 -a 0 -x {0.0 3.0 19 ------- null}
h -t 0.08293 -s 6 -d 5 -p cbr -e 210 -c 0 -i 61 -a 0 -x {0.0 3.0 -1 ------- null}
+ -t 0.08625 -s 0 -d 6 -p cbr -e 210 -c 0 -i 67 -a 0 -x {0.0 3.0 23 ------- null}
- -t 0.08625 -s 0 -d 6 -p cbr -e 210 -c 0 -i 67 -a 0 -x {0.0 3.0 23 ------- null}
h -t 0.08625 -s 0 -d 6 -p cbr -e 210 -c 0 -i 67 -a 0 -x {0.0 3.0 -1 ------- null}
r -t 0.08668 -s 0 -d 6 -p cbr -e 210 -c 0 -i 62 -a 0 -x {0.0 3.0 20 ------- null}
+ -t 0.08668 -s 6 -d 5 -p cbr -e 210 -c 0 -i 62 -a 0 -x {0.0 3.0 20 ------- null}
- -t 0.08668 -s 6 -d 5 -p cbr -e 210 -c 0 -i 62 -a 0 -x {0.0 3.0 20 ------- null}
h -t 0.08668 -s 6 -d 5 -p cbr -e 210 -c 0 -i 62 -a 0 -x {0.0 3.0 -1 ------- null}
r -t 0.08711 -s 6 -d 5 -p cbr -e 210 -c 0 -i 55 -a 0 -x {0.0 3.0 17 ------- null}
+ -t 0.08711 -s 5 -d 4 -p cbr -e 210 -c 0 -i 55 -a 0 -x {0.0 3.0 17 ------- null}
- -t 0.08711 -s 5 -d 4 -p cbr -e 210 -c 0 -i 55 -a 0 -x {0.0 3.0 17 ------- null}
h -t 0.08711 -s 5 -d 4 -p cbr -e 210 -c 0 -i 55 -a 0 -x {0.0 3.0 -1 ------- null}
+ -t 0.0900000000000001 -s 0 -d 6 -p cbr -e 210 -c 0 -i 68 -a 0 -x {0.0 3.0 24 ------- null}
- -t 0.0900000000000001 -s 0 -d 6 -p cbr -e 210 -c 0 -i 68 -a 0 -x {0.0 3.0 24 ------- null}
h -t 0.0900000000000001 -s 0 -d 6 -p cbr -e 210 -c 0 -i 68 -a 0 -x {0.0 3.0 -1 ------- null}
r -t 0.09043 -s 0 -d 6 -p cbr -e 210 -c 0 -i 63 -a 0 -x {0.0 3.0 21 ------- null}
+ -t 0.09043 -s 6 -d 5 -p cbr -e 210 -c 0 -i 63 -a 0 -x {0.0 3.0 21 ------- null}
- -t 0.09043 -s 6 -d 5 -p cbr -e 210 -c 0 -i 63 -a 0 -x {0.0 3.0 21 ------- null}
h -t 0.09043 -s 6 -d 5 -p cbr -e 210 -c 0 -i 63 -a 0 -x {0.0 3.0 -1 ------- null}
r -t 0.0906737884873346 -s 0 -d 1 -p rtProtoDV -e 7 -c 0 -i 64 -a 0 -x {0.2 1.1 -1 ------- null}
r -t 0.0906737884873346 -s 0 -d 6 -p rtProtoDV -e 7 -c 0 -i 65 -a 0 -x {0.2 6.1 -1 ------- null}
r -t 0.09086 -s 6 -d 5 -p cbr -e 210 -c 0 -i 56 -a 0 -x {0.0 3.0 18 ------- null}
+ -t 0.09086 -s 5 -d 4 -p cbr -e 210 -c 0 -i 56 -a 0 -x {0.0 3.0 18 ------- null}
- -t 0.09086 -s 5 -d 4 -p cbr -e 210 -c 0 -i 56 -a 0 -x {0.0 3.0 18 ------- null}
h -t 0.09086 -s 5 -d 4 -p cbr -e 210 -c 0 -i 56 -a 0 -x {0.0 3.0 -1 ------- null}
+ -t 0.0937500000000001 -s 0 -d 6 -p cbr -e 210 -c 0 -i 69 -a 0 -x {0.0 3.0 25 ------- null}
- -t 0.0937500000000001 -s 0 -d 6 -p cbr -e 210 -c 0 -i 69 -a 0 -x {0.0 3.0 25 ------- null}
h -t 0.0937500000000001 -s 0 -d 6 -p cbr -e 210 -c 0 -i 69 -a 0 -x {0.0 3.0 -1 ------- null}
r -t 0.09418 -s 0 -d 6 -p cbr -e 210 -c 0 -i 66 -a 0 -x {0.0 3.0 22 ------- null}
+ -t 0.09418 -s 6 -d 5 -p cbr -e 210 -c 0 -i 66 -a 0 -x {0.0 3.0 22 ------- null}
- -t 0.09418 -s 6 -d 5 -p cbr -e 210 -c 0 -i 66 -a 0 -x {0.0 3.0 22 ------- null}
h -t 0.09418 -s 6 -d 5 -p cbr -e 210 -c 0 -i 66 -a 0 -x {0.0 3.0 -1 ------- null}
r -t 0.09461 -s 6 -d 5 -p cbr -e 210 -c 0 -i 61 -a 0 -x {0.0 3.0 19 ------- null}
+ -t 0.09461 -s 5 -d 4 -p cbr -e 210 -c 0 -i 61 -a 0 -x {0.0 3.0 19 ------- null}
- -t 0.09461 -s 5 -d 4 -p cbr -e 210 -c 0 -i 61 -a 0 -x {0.0 3.0 19 ------- null}
h -t 0.09461 -s 5 -d 4 -p cbr -e 210 -c 0 -i 61 -a 0 -x {0.0 3.0 -1 ------- null}
+ -t 0.0975000000000001 -s 0 -d 6 -p cbr -e 210 -c 0 -i 70 -a 0 -x {0.0 3.0 26 ------- null}
- -t 0.0975000000000001 -s 0 -d 6 -p cbr -e 210 -c 0 -i 70 -a 0 -x {0.0 3.0 26 ------- null}
h -t 0.0975000000000001 -s 0 -d 6 -p cbr -e 210 -c 0 -i 70 -a 0 -x {0.0 3.0 -1 ------- null}
r -t 0.09793 -s 0 -d 6 -p cbr -e 210 -c 0 -i 67 -a 0 -x {0.0 3.0 23 ------- null}
+ -t 0.09793 -s 6 -d 5 -p cbr -e 210 -c 0 -i 67 -a 0 -x {0.0 3.0 23 ------- null}
- -t 0.09793 -s 6 -d 5 -p cbr -e 210 -c 0 -i 67 -a 0 -x {0.0 3.0 23 ------- null}
h -t 0.09793 -s 6 -d 5 -p cbr -e 210 -c 0 -i 67 -a 0 -x {0.0 3.0 -1 ------- null}
r -t 0.09836 -s 6 -d 5 -p cbr -e 210 -c 0 -i 62 -a 0 -x {0.0 3.0 20 ------- null}
+ -t 0.09836 -s 5 -d 4 -p cbr -e 210 -c 0 -i 62 -a 0 -x {0.0 3.0 20 ------- null}
- -t 0.09836 -s 5 -d 4 -p cbr -e 210 -c 0 -i 62 -a 0 -x {0.0 3.0 20 ------- null}
h -t 0.09836 -s 5 -d 4 -p cbr -e 210 -c 0 -i 62 -a 0 -x {0.0 3.0 -1 ------- null}
r -t 0.09879 -s 5 -d 4 -p cbr -e 210 -c 0 -i 55 -a 0 -x {0.0 3.0 17 ------- null}
+ -t 0.09879 -s 4 -d 3 -p cbr -e 210 -c 0 -i 55 -a 0 -x {0.0 3.0 17 ------- null}
- -t 0.09879 -s 4 -d 3 -p cbr -e 210 -c 0 -i 55 -a 0 -x {0.0 3.0 17 ------- null}
h -t 0.09879 -s 4 -d 3 -p cbr -e 210 -c 0 -i 55 -a 0 -x {0.0 3.0 -1 ------- null}
+ -t 0.10125 -s 0 -d 6 -p cbr -e 210 -c 0 -i 71 -a 0 -x {0.0 3.0 27 ------- null}
- -t 0.10125 -s 0 -d 6 -p cbr -e 210 -c 0 -i 71 -a 0 -x {0.0 3.0 27 ------- null}
h -t 0.10125 -s 0 -d 6 -p cbr -e 210 -c 0 -i 71 -a 0 -x {0.0 3.0 -1 ------- null}
r -t 0.10168 -s 0 -d 6 -p cbr -e 210 -c 0 -i 68 -a 0 -x {0.0 3.0 24 ------- null}
+ -t 0.10168 -s 6 -d 5 -p cbr -e 210 -c 0 -i 68 -a 0 -x {0.0 3.0 24 ------- null}
- -t 0.10168 -s 6 -d 5 -p cbr -e 210 -c 0 -i 68 -a 0 -x {0.0 3.0 24 ------- null}
h -t 0.10168 -s 6 -d 5 -p cbr -e 210 -c 0 -i 68 -a 0 -x {0.0 3.0 -1 ------- null}
r -t 0.10211 -s 6 -d 5 -p cbr -e 210 -c 0 -i 63 -a 0 -x {0.0 3.0 21 ------- null}
+ -t 0.10211 -s 5 -d 4 -p cbr -e 210 -c 0 -i 63 -a 0 -x {0.0 3.0 21 ------- null}
- -t 0.10211 -s 5 -d 4 -p cbr -e 210 -c 0 -i 63 -a 0 -x {0.0 3.0 21 ------- null}
h -t 0.10211 -s 5 -d 4 -p cbr -e 210 -c 0 -i 63 -a 0 -x {0.0 3.0 -1 ------- null}
r -t 0.10254 -s 5 -d 4 -p cbr -e 210 -c 0 -i 56 -a 0 -x {0.0 3.0 18 ------- null}
+ -t 0.10254 -s 4 -d 3 -p cbr -e 210 -c 0 -i 56 -a 0 -x {0.0 3.0 18 ------- null}
- -t 0.10254 -s 4 -d 3 -p cbr -e 210 -c 0 -i 56 -a 0 -x {0.0 3.0 18 ------- null}
h -t 0.10254 -s 4 -d 3 -p cbr -e 210 -c 0 -i 56 -a 0 -x {0.0 3.0 -1 ------- null}
+ -t 0.105 -s 0 -d 6 -p cbr -e 210 -c 0 -i 72 -a 0 -x {0.0 3.0 28 ------- null}
- -t 0.105 -s 0 -d 6 -p cbr -e 210 -c 0 -i 72 -a 0 -x {0.0 3.0 28 ------- null}
h -t 0.105 -s 0 -d 6 -p cbr -e 210 -c 0 -i 72 -a 0 -x {0.0 3.0 -1 ------- null}
r -t 0.10543 -s 0 -d 6 -p cbr -e 210 -c 0 -i 69 -a 0 -x {0.0 3.0 25 ------- null}
+ -t 0.10543 -s 6 -d 5 -p cbr -e 210 -c 0 -i 69 -a 0 -x {0.0 3.0 25 ------- null}
- -t 0.10543 -s 6 -d 5 -p cbr -e 210 -c 0 -i 69 -a 0 -x {0.0 3.0 25 ------- null}
h -t 0.10543 -s 6 -d 5 -p cbr -e 210 -c 0 -i 69 -a 0 -x {0.0 3.0 -1 ------- null}
r -t 0.10586 -s 6 -d 5 -p cbr -e 210 -c 0 -i 66 -a 0 -x {0.0 3.0 22 ------- null}
+ -t 0.10586 -s 5 -d 4 -p cbr -e 210 -c 0 -i 66 -a 0 -x {0.0 3.0 22 ------- null}
- -t 0.10586 -s 5 -d 4 -p cbr -e 210 -c 0 -i 66 -a 0 -x {0.0 3.0 22 ------- null}
h -t 0.10586 -s 5 -d 4 -p cbr -e 210 -c 0 -i 66 -a 0 -x {0.0 3.0 -1 ------- null}
r -t 0.10629 -s 5 -d 4 -p cbr -e 210 -c 0 -i 61 -a 0 -x {0.0 3.0 19 ------- null}
+ -t 0.10629 -s 4 -d 3 -p cbr -e 210 -c 0 -i 61 -a 0 -x {0.0 3.0 19 ------- null}
- -t 0.10629 -s 4 -d 3 -p cbr -e 210 -c 0 -i 61 -a 0 -x {0.0 3.0 19 ------- null}
h -t 0.10629 -s 4 -d 3 -p cbr -e 210 -c 0 -i 61 -a 0 -x {0.0 3.0 -1 ------- null}
+ -t 0.10875 -s 0 -d 6 -p cbr -e 210 -c 0 -i 73 -a 0 -x {0.0 3.0 29 ------- null}
- -t 0.10875 -s 0 -d 6 -p cbr -e 210 -c 0 -i 73 -a 0 -x {0.0 3.0 29 ------- null}
h -t 0.10875 -s 0 -d 6 -p cbr -e 210 -c 0 -i 73 -a 0 -x {0.0 3.0 -1 ------- null}
r -t 0.10918 -s 0 -d 6 -p cbr -e 210 -c 0 -i 70 -a 0 -x {0.0 3.0 26 ------- null}
+ -t 0.10918 -s 6 -d 5 -p cbr -e 210 -c 0 -i 70 -a 0 -x {0.0 3.0 26 ------- null}
- -t 0.10918 -s 6 -d 5 -p cbr -e 210 -c 0 -i 70 -a 0 -x {0.0 3.0 26 ------- null}
h -t 0.10918 -s 6 -d 5 -p cbr -e 210 -c 0 -i 70 -a 0 -x {0.0 3.0 -1 ------- null}
r -t 0.10961 -s 6 -d 5 -p cbr -e 210 -c 0 -i 67 -a 0 -x {0.0 3.0 23 ------- null}
+ -t 0.10961 -s 5 -d 4 -p cbr -e 210 -c 0 -i 67 -a 0 -x {0.0 3.0 23 ------- null}
- -t 0.10961 -s 5 -d 4 -p cbr -e 210 -c 0 -i 67 -a 0 -x {0.0 3.0 23 ------- null}
h -t 0.10961 -s 5 -d 4 -p cbr -e 210 -c 0 -i 67 -a 0 -x {0.0 3.0 -1 ------- null}
r -t 0.11004 -s 5 -d 4 -p cbr -e 210 -c 0 -i 62 -a 0 -x {0.0 3.0 20 ------- null}
+ -t 0.11004 -s 4 -d 3 -p cbr -e 210 -c 0 -i 62 -a 0 -x {0.0 3.0 20 ------- null}
- -t 0.11004 -s 4 -d 3 -p cbr -e 210 -c 0 -i 62 -a 0 -x {0.0 3.0 20 ------- null}
h -t 0.11004 -s 4 -d 3 -p cbr -e 210 -c 0 -i 62 -a 0 -x {0.0 3.0 -1 ------- null}
r -t 0.11047 -s 4 -d 3 -p cbr -e 210 -c 0 -i 55 -a 0 -x {0.0 3.0 17 ------- null}
+ -t 0.1125 -s 0 -d 6 -p cbr -e 210 -c 0 -i 74 -a 0 -x {0.0 3.0 30 ------- null}
- -t 0.1125 -s 0 -d 6 -p cbr -e 210 -c 0 -i 74 -a 0 -x {0.0 3.0 30 ------- null}
h -t 0.1125 -s 0 -d 6 -p cbr -e 210 -c 0 -i 74 -a 0 -x {0.0 3.0 -1 ------- null}
r -t 0.11293 -s 0 -d 6 -p cbr -e 210 -c 0 -i 71 -a 0 -x {0.0 3.0 27 ------- null}
+ -t 0.11293 -s 6 -d 5 -p cbr -e 210 -c 0 -i 71 -a 0 -x {0.0 3.0 27 ------- null}
- -t 0.11293 -s 6 -d 5 -p cbr -e 210 -c 0 -i 71 -a 0 -x {0.0 3.0 27 ------- null}
h -t 0.11293 -s 6 -d 5 -p cbr -e 210 -c 0 -i 71 -a 0 -x {0.0 3.0 -1 ------- null}
r -t 0.11336 -s 6 -d 5 -p cbr -e 210 -c 0 -i 68 -a 0 -x {0.0 3.0 24 ------- null}
+ -t 0.11336 -s 5 -d 4 -p cbr -e 210 -c 0 -i 68 -a 0 -x {0.0 3.0 24 ------- null}
- -t 0.11336 -s 5 -d 4 -p cbr -e 210 -c 0 -i 68 -a 0 -x {0.0 3.0 24 ------- null}
h -t 0.11336 -s 5 -d 4 -p cbr -e 210 -c 0 -i 68 -a 0 -x {0.0 3.0 -1 ------- null}
r -t 0.11379 -s 5 -d 4 -p cbr -e 210 -c 0 -i 63 -a 0 -x {0.0 3.0 21 ------- null}
+ -t 0.11379 -s 4 -d 3 -p cbr -e 210 -c 0 -i 63 -a 0 -x {0.0 3.0 21 ------- null}
- -t 0.11379 -s 4 -d 3 -p cbr -e 210 -c 0 -i 63 -a 0 -x {0.0 3.0 21 ------- null}
h -t 0.11379 -s 4 -d 3 -p cbr -e 210 -c 0 -i 63 -a 0 -x {0.0 3.0 -1 ------- null}
r -t 0.11422 -s 4 -d 3 -p cbr -e 210 -c 0 -i 56 -a 0 -x {0.0 3.0 18 ------- null}
+ -t 0.11625 -s 0 -d 6 -p cbr -e 210 -c 0 -i 75 -a 0 -x {0.0 3.0 31 ------- null}
- -t 0.11625 -s 0 -d 6 -p cbr -e 210 -c 0 -i 75 -a 0 -x {0.0 3.0 31 ------- null}
h -t 0.11625 -s 0 -d 6 -p cbr -e 210 -c 0 -i 75 -a 0 -x {0.0 3.0 -1 ------- null}
r -t 0.11668 -s 0 -d 6 -p cbr -e 210 -c 0 -i 72 -a 0 -x {0.0 3.0 28 ------- null}
+ -t 0.11668 -s 6 -d 5 -p cbr -e 210 -c 0 -i 72 -a 0 -x {0.0 3.0 28 ------- null}
- -t 0.11668 -s 6 -d 5 -p cbr -e 210 -c 0 -i 72 -a 0 -x {0.0 3.0 28 ------- null}