+ 1 3 1 cbr 800 ------- 2 3.0 2.1 0 0
- 1 3 1 cbr 800 ------- 2 3.0 2.1 0 0
+ 1 0 1 tcp 40 ------- 1 0.0 2.0 0 1
- 1 0 1 tcp 40 ------- 1 0.0 2.0 0 1
+ 1.005 3 1 cbr 800 ------- 2 3.0 2.1 1 2
- 1.005 3 1 cbr 800 ------- 2 3.0 2.1 1 2
+ 1.01 3 1 cbr 800 ------- 2 3.0 2.1 2 3
- 1.01 3 1 cbr 800 ------- 2 3.0 2.1 2 3
+ 1.015 3 1 cbr 800 ------- 2 3.0 2.1 3 4
- 1.015 3 1 cbr 800 ------- 2 3.0 2.1 3 4
+ 1.02 3 1 cbr 800 ------- 2 3.0 2.1 4 5
- 1.02 3 1 cbr 800 ------- 2 3.0 2.1 4 5
+ 1.025 3 1 cbr 800 ------- 2 3.0 2.1 5 6
- 1.025 3 1 cbr 800 ------- 2 3.0 2.1 5 6
+ 1.03 3 1 cbr 800 ------- 2 3.0 2.1 6 7
- 1.03 3 1 cbr 800 ------- 2 3.0 2.1 6 7
+ 1.035 3 1 cbr 800 ------- 2 3.0 2.1 7 8
- 1.035 3 1 cbr 800 ------- 2 3.0 2.1 7 8
+ 1.04 3 1 cbr 800 ------- 2 3.0 2.1 8 9
- 1.04 3 1 cbr 800 ------- 2 3.0 2.1 8 9
+ 1.045 3 1 cbr 800 ------- 2 3.0 2.1 9 10
- 1.045 3 1 cbr 800 ------- 2 3.0 2.1 9 10
+ 1.05 3 1 cbr 800 ------- 2 3.0 2.1 10 11
- 1.05 3 1 cbr 800 ------- 2 3.0 2.1 10 11
+ 1.055 3 1 cbr 800 ------- 2 3.0 2.1 11 12
- 1.055 3 1 cbr 800 ------- 2 3.0 2.1 11 12
+ 1.06 3 1 cbr 800 ------- 2 3.0 2.1 12 13
- 1.06 3 1 cbr 800 ------- 2 3.0 2.1 12 13
+ 1.065 3 1 cbr 800 ------- 2 3.0 2.1 13 14
- 1.065 3 1 cbr 800 ------- 2 3.0 2.1 13 14
+ 1.07 3 1 cbr 800 ------- 2 3.0 2.1 14 15
- 1.07 3 1 cbr 800 ------- 2 3.0 2.1 14 15
+ 1.075 3 1 cbr 800 ------- 2 3.0 2.1 15 16
- 1.075 3 1 cbr 800 ------- 2 3.0 2.1 15 16
+ 1.08 3 1 cbr 800 ------- 2 3.0 2.1 16 17
- 1.08 3 1 cbr 800 ------- 2 3.0 2.1 16 17
+ 1.085 3 1 cbr 800 ------- 2 3.0 2.1 17 18
- 1.085 3 1 cbr 800 ------- 2 3.0 2.1 17 18
+ 1.09 3 1 cbr 800 ------- 2 3.0 2.1 18 19
- 1.09 3 1 cbr 800 ------- 2 3.0 2.1 18 19
+ 1.095 3 1 cbr 800 ------- 2 3.0 2.1 19 20
- 1.095 3 1 cbr 800 ------- 2 3.0 2.1 19 20
+ 1.1 3 1 cbr 800 ------- 2 3.0 2.1 20 21
- 1.1 3 1 cbr 800 ------- 2 3.0 2.1 20 21
r 1.10016 0 1 tcp 40 ------- 1 0.0 2.0 0 1
+ 1.10016 1 2 tcp 40 ------- 1 0.0 2.0 0 1
- 1.10016 1 2 tcp 40 ------- 1 0.0 2.0 0 1
r 1.1032 3 1 cbr 800 ------- 2 3.0 2.1 0 0
+ 1.1032 1 2 cbr 800 ------- 2 3.0 2.1 0 0
- 1.1032 1 2 cbr 800 ------- 2 3.0 2.1 0 0
+ 1.105 3 1 cbr 800 ------- 2 3.0 2.1 21 22
- 1.105 3 1 cbr 800 ------- 2 3.0 2.1 21 22
r 1.1082 3 1 cbr 800 ------- 2 3.0 2.1 1 2
+ 1.1082 1 2 cbr 800 ------- 2 3.0 2.1 1 2
- 1.1082 1 2 cbr 800 ------- 2 3.0 2.1 1 2
+ 1.11 3 1 cbr 800 ------- 2 3.0 2.1 22 23
- 1.11 3 1 cbr 800 ------- 2 3.0 2.1 22 23
r 1.1132 3 1 cbr 800 ------- 2 3.0 2.1 2 3
+ 1.1132 1 2 cbr 800 ------- 2 3.0 2.1 2 3
- 1.1132 1 2 cbr 800 ------- 2 3.0 2.1 2 3
+ 1.115 3 1 cbr 800 ------- 2 3.0 2.1 23 24
- 1.115 3 1 cbr 800 ------- 2 3.0 2.1 23 24
r 1.1182 3 1 cbr 800 ------- 2 3.0 2.1 3 4
+ 1.1182 1 2 cbr 800 ------- 2 3.0 2.1 3 4
- 1.1182 1 2 cbr 800 ------- 2 3.0 2.1 3 4
+ 1.12 3 1 cbr 800 ------- 2 3.0 2.1 24 25
- 1.12 3 1 cbr 800 ------- 2 3.0 2.1 24 25
r 1.1232 3 1 cbr 800 ------- 2 3.0 2.1 4 5
+ 1.1232 1 2 cbr 800 ------- 2 3.0 2.1 4 5
- 1.1232 1 2 cbr 800 ------- 2 3.0 2.1 4 5
+ 1.125 3 1 cbr 800 ------- 2 3.0 2.1 25 26
- 1.125 3 1 cbr 800 ------- 2 3.0 2.1 25 26
r 1.1282 3 1 cbr 800 ------- 2 3.0 2.1 5 6
+ 1.1282 1 2 cbr 800 ------- 2 3.0 2.1 5 6
- 1.1282 1 2 cbr 800 ------- 2 3.0 2.1 5 6
+ 1.13 3 1 cbr 800 ------- 2 3.0 2.1 26 27
- 1.13 3 1 cbr 800 ------- 2 3.0 2.1 26 27
r 1.1332 3 1 cbr 800 ------- 2 3.0 2.1 6 7
+ 1.1332 1 2 cbr 800 ------- 2 3.0 2.1 6 7
- 1.1332 1 2 cbr 800 ------- 2 3.0 2.1 6 7
+ 1.135 3 1 cbr 800 ------- 2 3.0 2.1 27 28
- 1.135 3 1 cbr 800 ------- 2 3.0 2.1 27 28
r 1.1382 3 1 cbr 800 ------- 2 3.0 2.1 7 8
+ 1.1382 1 2 cbr 800 ------- 2 3.0 2.1 7 8
- 1.1382 1 2 cbr 800 ------- 2 3.0 2.1 7 8
+ 1.14 3 1 cbr 800 ------- 2 3.0 2.1 28 29
- 1.14 3 1 cbr 800 ------- 2 3.0 2.1 28 29
r 1.1432 3 1 cbr 800 ------- 2 3.0 2.1 8 9
+ 1.1432 1 2 cbr 800 ------- 2 3.0 2.1 8 9
- 1.1432 1 2 cbr 800 ------- 2 3.0 2.1 8 9
+ 1.145 3 1 cbr 800 ------- 2 3.0 2.1 29 30
- 1.145 3 1 cbr 800 ------- 2 3.0 2.1 29 30
r 1.1482 3 1 cbr 800 ------- 2 3.0 2.1 9 10
+ 1.1482 1 2 cbr 800 ------- 2 3.0 2.1 9 10
- 1.1482 1 2 cbr 800 ------- 2 3.0 2.1 9 10
+ 1.15 3 1 cbr 800 ------- 2 3.0 2.1 30 31
- 1.15 3 1 cbr 800 ------- 2 3.0 2.1 30 31
r 1.1532 3 1 cbr 800 ------- 2 3.0 2.1 10 11
+ 1.1532 1 2 cbr 800 ------- 2 3.0 2.1 10 11
- 1.1532 1 2 cbr 800 ------- 2 3.0 2.1 10 11
+ 1.155 3 1 cbr 800 ------- 2 3.0 2.1 31 32
- 1.155 3 1 cbr 800 ------- 2 3.0 2.1 31 32
r 1.1582 3 1 cbr 800 ------- 2 3.0 2.1 11 12
+ 1.1582 1 2 cbr 800 ------- 2 3.0 2.1 11 12
- 1.1582 1 2 cbr 800 ------- 2 3.0 2.1 11 12
+ 1.16 3 1 cbr 800 ------- 2 3.0 2.1 32 33
- 1.16 3 1 cbr 800 ------- 2 3.0 2.1 32 33
r 1.1632 3 1 cbr 800 ------- 2 3.0 2.1 12 13
+ 1.1632 1 2 cbr 800 ------- 2 3.0 2.1 12 13
- 1.1632 1 2 cbr 800 ------- 2 3.0 2.1 12 13
+ 1.165 3 1 cbr 800 ------- 2 3.0 2.1 33 34
- 1.165 3 1 cbr 800 ------- 2 3.0 2.1 33 34
r 1.1682 3 1 cbr 800 ------- 2 3.0 2.1 13 14
+ 1.1682 1 2 cbr 800 ------- 2 3.0 2.1 13 14
- 1.1682 1 2 cbr 800 ------- 2 3.0 2.1 13 14
+ 1.17 3 1 cbr 800 ------- 2 3.0 2.1 34 35
- 1.17 3 1 cbr 800 ------- 2 3.0 2.1 34 35
r 1.1732 3 1 cbr 800 ------- 2 3.0 2.1 14 15
+ 1.1732 1 2 cbr 800 ------- 2 3.0 2.1 14 15
- 1.1732 1 2 cbr 800 ------- 2 3.0 2.1 14 15
+ 1.175 3 1 cbr 800 ------- 2 3.0 2.1 35 36
- 1.175 3 1 cbr 800 ------- 2 3.0 2.1 35 36
r 1.1782 3 1 cbr 800 ------- 2 3.0 2.1 15 16
+ 1.1782 1 2 cbr 800 ------- 2 3.0 2.1 15 16
- 1.1782 1 2 cbr 800 ------- 2 3.0 2.1 15 16
+ 1.18 3 1 cbr 800 ------- 2 3.0 2.1 36 37
- 1.18 3 1 cbr 800 ------- 2 3.0 2.1 36 37
r 1.1832 3 1 cbr 800 ------- 2 3.0 2.1 16 17
+ 1.1832 1 2 cbr 800 ------- 2 3.0 2.1 16 17
- 1.1832 1 2 cbr 800 ------- 2 3.0 2.1 16 17
+ 1.185 3 1 cbr 800 ------- 2 3.0 2.1 37 38
- 1.185 3 1 cbr 800 ------- 2 3.0 2.1 37 38
r 1.1882 3 1 cbr 800 ------- 2 3.0 2.1 17 18
+ 1.1882 1 2 cbr 800 ------- 2 3.0 2.1 17 18
- 1.1882 1 2 cbr 800 ------- 2 3.0 2.1 17 18
+ 1.19 3 1 cbr 800 ------- 2 3.0 2.1 38 39
- 1.19 3 1 cbr 800 ------- 2 3.0 2.1 38 39
r 1.1932 3 1 cbr 800 ------- 2 3.0 2.1 18 19
+ 1.1932 1 2 cbr 800 ------- 2 3.0 2.1 18 19
- 1.1932 1 2 cbr 800 ------- 2 3.0 2.1 18 19
+ 1.195 3 1 cbr 800 ------- 2 3.0 2.1 39 40
- 1.195 3 1 cbr 800 ------- 2 3.0 2.1 39 40
r 1.1982 3 1 cbr 800 ------- 2 3.0 2.1 19 20
+ 1.1982 1 2 cbr 800 ------- 2 3.0 2.1 19 20
- 1.1982 1 2 cbr 800 ------- 2 3.0 2.1 19 20
+ 1.2 3 1 cbr 800 ------- 2 3.0 2.1 40 41
- 1.2 3 1 cbr 800 ------- 2 3.0 2.1 40 41
r 1.20032 1 2 tcp 40 ------- 1 0.0 2.0 0 1
+ 1.20032 2 1 ack 40 ------- 1 2.0 0.0 0 42
- 1.20032 2 1 ack 40 ------- 1 2.0 0.0 0 42
r 1.2032 3 1 cbr 800 ------- 2 3.0 2.1 20 21
+ 1.2032 1 2 cbr 800 ------- 2 3.0 2.1 20 21
- 1.2032 1 2 cbr 800 ------- 2 3.0 2.1 20 21
+ 1.205 3 1 cbr 800 ------- 2 3.0 2.1 41 43
- 1.205 3 1 cbr 800 ------- 2 3.0 2.1 41 43
r 1.2064 1 2 cbr 800 ------- 2 3.0 2.1 0 0
r 1.2082 3 1 cbr 800 ------- 2 3.0 2.1 21 22
+ 1.2082 1 2 cbr 800 ------- 2 3.0 2.1 21 22
- 1.2082 1 2 cbr 800 ------- 2 3.0 2.1 21 22
+ 1.21 3 1 cbr 800 ------- 2 3.0 2.1 42 44
- 1.21 3 1 cbr 800 ------- 2 3.0 2.1 42 44
r 1.2114 1 2 cbr 800 ------- 2 3.0 2.1 1 2
r 1.2132 3 1 cbr 800 ------- 2 3.0 2.1 22 23
+ 1.2132 1 2 cbr 800 ------- 2 3.0 2.1 22 23
- 1.2132 1 2 cbr 800 ------- 2 3.0 2.1 22 23
+ 1.215 3 1 cbr 800 ------- 2 3.0 2.1 43 45
- 1.215 3 1 cbr 800 ------- 2 3.0 2.1 43 45
r 1.2164 1 2 cbr 800 ------- 2 3.0 2.1 2 3
r 1.2182 3 1 cbr 800 ------- 2 3.0 2.1 23 24
+ 1.2182 1 2 cbr 800 ------- 2 3.0 2.1 23 24
- 1.2182 1 2 cbr 800 ------- 2 3.0 2.1 23 24
+ 1.22 3 1 cbr 800 ------- 2 3.0 2.1 44 46
- 1.22 3 1 cbr 800 ------- 2 3.0 2.1 44 46
r 1.2214 1 2 cbr 800 ------- 2 3.0 2.1 3 4
r 1.2232 3 1 cbr 800 ------- 2 3.0 2.1 24 25
+ 1.2232 1 2 cbr 800 ------- 2 3.0 2.1 24 25
- 1.2232 1 2 cbr 800 ------- 2 3.0 2.1 24 25
+ 1.225 3 1 cbr 800 ------- 2 3.0 2.1 45 47
- 1.225 3 1 cbr 800 ------- 2 3.0 2.1 45 47
r 1.2264 1 2 cbr 800 ------- 2 3.0 2.1 4 5
r 1.2282 3 1 cbr 800 ------- 2 3.0 2.1 25 26
+ 1.2282 1 2 cbr 800 ------- 2 3.0 2.1 25 26
- 1.2282 1 2 cbr 800 ------- 2 3.0 2.1 25 26
+ 1.23 3 1 cbr 800 ------- 2 3.0 2.1 46 48
- 1.23 3 1 cbr 800 ------- 2 3.0 2.1 46 48
r 1.2314 1 2 cbr 800 ------- 2 3.0 2.1 5 6
r 1.2332 3 1 cbr 800 ------- 2 3.0 2.1 26 27
+ 1.2332 1 2 cbr 800 ------- 2 3.0 2.1 26 27
- 1.2332 1 2 cbr 800 ------- 2 3.0 2.1 26 27
+ 1.235 3 1 cbr 800 ------- 2 3.0 2.1 47 49
- 1.235 3 1 cbr 800 ------- 2 3.0 2.1 47 49
r 1.2364 1 2 cbr 800 ------- 2 3.0 2.1 6 7
r 1.2382 3 1 cbr 800 ------- 2 3.0 2.1 27 28
+ 1.2382 1 2 cbr 800 ------- 2 3.0 2.1 27 28
- 1.2382 1 2 cbr 800 ------- 2 3.0 2.1 27 28
+ 1.24 3 1 cbr 800 ------- 2 3.0 2.1 48 50
- 1.24 3 1 cbr 800 ------- 2 3.0 2.1 48 50
r 1.2414 1 2 cbr 800 ------- 2 3.0 2.1 7 8
r 1.2432 3 1 cbr 800 ------- 2 3.0 2.1 28 29
+ 1.2432 1 2 cbr 800 ------- 2 3.0 2.1 28 29
- 1.2432 1 2 cbr 800 ------- 2 3.0 2.1 28 29
+ 1.245 3 1 cbr 800 ------- 2 3.0 2.1 49 51
- 1.245 3 1 cbr 800 ------- 2 3.0 2.1 49 51
r 1.2464 1 2 cbr 800 ------- 2 3.0 2.1 8 9
r 1.2482 3 1 cbr 800 ------- 2 3.0 2.1 29 30
+ 1.2482 1 2 cbr 800 ------- 2 3.0 2.1 29 30
- 1.2482 1 2 cbr 800 ------- 2 3.0 2.1 29 30
+ 1.25 3 1 cbr 800 ------- 2 3.0 2.1 50 52
- 1.25 3 1 cbr 800 ------- 2 3.0 2.1 50 52
r 1.2514 1 2 cbr 800 ------- 2 3.0 2.1 9 10
r 1.2532 3 1 cbr 800 ------- 2 3.0 2.1 30 31
+ 1.2532 1 2 cbr 800 ------- 2 3.0 2.1 30 31
- 1.2532 1 2 cbr 800 ------- 2 3.0 2.1 30 31
+ 1.255 3 1 cbr 800 ------- 2 3.0 2.1 51 53
- 1.255 3 1 cbr 800 ------- 2 3.0 2.1 51 53
r 1.2564 1 2 cbr 800 ------- 2 3.0 2.1 10 11
r 1.2582 3 1 cbr 800 ------- 2 3.0 2.1 31 32
+ 1.2582 1 2 cbr 800 ------- 2 3.0 2.1 31 32
- 1.2582 1 2 cbr 800 ------- 2 3.0 2.1 31 32
+ 1.26 3 1 cbr 800 ------- 2 3.0 2.1 52 54
- 1.26 3 1 cbr 800 ------- 2 3.0 2.1 52 54
r 1.2614 1 2 cbr 800 ------- 2 3.0 2.1 11 12
r 1.2632 3 1 cbr 800 ------- 2 3.0 2.1 32 33
+ 1.2632 1 2 cbr 800 ------- 2 3.0 2.1 32 33
- 1.2632 1 2 cbr 800 ------- 2 3.0 2.1 32 33
+ 1.265 3 1 cbr 800 ------- 2 3.0 2.1 53 55
- 1.265 3 1 cbr 800 ------- 2 3.0 2.1 53 55
r 1.2664 1 2 cbr 800 ------- 2 3.0 2.1 12 13
r 1.2682 3 1 cbr 800 ------- 2 3.0 2.1 33 34
+ 1.2682 1 2 cbr 800 ------- 2 3.0 2.1 33 34
- 1.2682 1 2 cbr 800 ------- 2 3.0 2.1 33 34
+ 1.27 3 1 cbr 800 ------- 2 3.0 2.1 54 56
- 1.27 3 1 cbr 800 ------- 2 3.0 2.1 54 56
r 1.2714 1 2 cbr 800 ------- 2 3.0 2.1 13 14
r 1.2732 3 1 cbr 800 ------- 2 3.0 2.1 34 35
+ 1.2732 1 2 cbr 800 ------- 2 3.0 2.1 34 35
- 1.2732 1 2 cbr 800 ------- 2 3.0 2.1 34 35
+ 1.275 3 1 cbr 800 ------- 2 3.0 2.1 55 57
- 1.275 3 1 cbr 800 ------- 2 3.0 2.1 55 57
r 1.2764 1 2 cbr 800 ------- 2 3.0 2.1 14 15
r 1.2782 3 1 cbr 800 ------- 2 3.0 2.1 35 36
+ 1.2782 1 2 cbr 800 ------- 2 3.0 2.1 35 36
- 1.2782 1 2 cbr 800 ------- 2 3.0 2.1 35 36
+ 1.28 3 1 cbr 800 ------- 2 3.0 2.1 56 58
- 1.28 3 1 cbr 800 ------- 2 3.0 2.1 56 58
r 1.2814 1 2 cbr 800 ------- 2 3.0 2.1 15 16
r 1.2832 3 1 cbr 800 ------- 2 3.0 2.1 36 37
+ 1.2832 1 2 cbr 800 ------- 2 3.0 2.1 36 37
- 1.2832 1 2 cbr 800 ------- 2 3.0 2.1 36 37
+ 1.285 3 1 cbr 800 ------- 2 3.0 2.1 57 59
- 1.285 3 1 cbr 800 ------- 2 3.0 2.1 57 59
r 1.2864 1 2 cbr 800 ------- 2 3.0 2.1 16 17
r 1.2882 3 1 cbr 800 ------- 2 3.0 2.1 37 38
+ 1.2882 1 2 cbr 800 ------- 2 3.0 2.1 37 38
- 1.2882 1 2 cbr 800 ------- 2 3.0 2.1 37 38
+ 1.29 3 1 cbr 800 ------- 2 3.0 2.1 58 60
- 1.29 3 1 cbr 800 ------- 2 3.0 2.1 58 60
r 1.2914 1 2 cbr 800 ------- 2 3.0 2.1 17 18
r 1.2932 3 1 cbr 800 ------- 2 3.0 2.1 38 39
+ 1.2932 1 2 cbr 800 ------- 2 3.0 2.1 38 39
- 1.2932 1 2 cbr 800 ------- 2 3.0 2.1 38 39
+ 1.295 3 1 cbr 800 ------- 2 3.0 2.1 59 61
- 1.295 3 1 cbr 800 ------- 2 3.0 2.1 59 61
r 1.2964 1 2 cbr 800 ------- 2 3.0 2.1 18 19
r 1.2982 3 1 cbr 800 ------- 2 3.0 2.1 39 40
+ 1.2982 1 2 cbr 800 ------- 2 3.0 2.1 39 40
- 1.2982 1 2 cbr 800 ------- 2 3.0 2.1 39 40
+ 1.3 3 1 cbr 800 ------- 2 3.0 2.1 60 62
- 1.3 3 1 cbr 800 ------- 2 3.0 2.1 60 62
r 1.30048 2 1 ack 40 ------- 1 2.0 0.0 0 42
+ 1.30048 1 0 ack 40 ------- 1 2.0 0.0 0 42
- 1.30048 1 0 ack 40 ------- 1 2.0 0.0 0 42
r 1.3014 1 2 cbr 800 ------- 2 3.0 2.1 19 20
r 1.3032 3 1 cbr 800 ------- 2 3.0 2.1 40 41
+ 1.3032 1 2 cbr 800 ------- 2 3.0 2.1 40 41
- 1.3032 1 2 cbr 800 ------- 2 3.0 2.1 40 41
+ 1.305 3 1 cbr 800 ------- 2 3.0 2.1 61 63
- 1.305 3 1 cbr 800 ------- 2 3.0 2.1 61 63
r 1.3064 1 2 cbr 800 ------- 2 3.0 2.1 20 21
r 1.3082 3 1 cbr 800 ------- 2 3.0 2.1 41 43
+ 1.3082 1 2 cbr 800 ------- 2 3.0 2.1 41 43
- 1.3082 1 2 cbr 800 ------- 2 3.0 2.1 41 43
+ 1.31 3 1 cbr 800 ------- 2 3.0 2.1 62 64
- 1.31 3 1 cbr 800 ------- 2 3.0 2.1 62 64
r 1.3114 1 2 cbr 800 ------- 2 3.0 2.1 21 22
r 1.3132 3 1 cbr 800 ------- 2 3.0 2.1 42 44
+ 1.3132 1 2 cbr 800 ------- 2 3.0 2.1 42 44
- 1.3132 1 2 cbr 800 ------- 2 3.0 2.1 42 44
+ 1.315 3 1 cbr 800 ------- 2 3.0 2.1 63 65
- 1.315 3 1 cbr 800 ------- 2 3.0 2.1 63 65
r 1.3164 1 2 cbr 800 ------- 2 3.0 2.1 22 23
r 1.3182 3 1 cbr 800 ------- 2 3.0 2.1 43 45
+ 1.3182 1 2 cbr 800 ------- 2 3.0 2.1 43 45
- 1.3182 1 2 cbr 800 ------- 2 3.0 2.1 43 45
+ 1.32 3 1 cbr 800 ------- 2 3.0 2.1 64 66
- 1.32 3 1 cbr 800 ------- 2 3.0 2.1 64 66
r 1.3214 1 2 cbr 800 ------- 2 3.0 2.1 23 24
r 1.3232 3 1 cbr 800 ------- 2 3.0 2.1 44 46
+ 1.3232 1 2 cbr 800 ------- 2 3.0 2.1 44 46
- 1.3232 1 2 cbr 800 ------- 2 3.0 2.1 44 46
+ 1.325 3 1 cbr 800 ------- 2 3.0 2.1 65 67
- 1.325 3 1 cbr 800 ------- 2 3.0 2.1 65 67
r 1.3264 1 2 cbr 800 ------- 2 3.0 2.1 24 25
r 1.3282 3 1 cbr 800 ------- 2 3.0 2.1 45 47
+ 1.3282 1 2 cbr 800 ------- 2 3.0 2.1 45 47
- 1.3282 1 2 cbr 800 ------- 2 3.0 2.1 45 47
+ 1.33 3 1 cbr 800 ------- 2 3.0 2.1 66 68
- 1.33 3 1 cbr 800 ------- 2 3.0 2.1 66 68
r 1.3314 1 2 cbr 800 ------- 2 3.0 2.1 25 26
r 1.3332 3 1 cbr 800 ------- 2 3.0 2.1 46 48
+ 1.3332 1 2 cbr 800 ------- 2 3.0 2.1 46 48
- 1.3332 1 2 cbr 800 ------- 2 3.0 2.1 46 48
+ 1.335 3 1 cbr 800 ------- 2 3.0 2.1 67 69
- 1.335 3 1 cbr 800 ------- 2 3.0 2.1 67 69
r 1.3364 1 2 cbr 800 ------- 2 3.0 2.1 26 27
r 1.3382 3 1 cbr 800 ------- 2 3.0 2.1 47 49
+ 1.3382 1 2 cbr 800 ------- 2 3.0 2.1 47 49
- 1.3382 1 2 cbr 800 ------- 2 3.0 2.1 47 49
+ 1.34 3 1 cbr 800 ------- 2 3.0 2.1 68 70
- 1.34 3 1 cbr 800 ------- 2 3.0 2.1 68 70
r 1.3414 1 2 cbr 800 ------- 2 3.0 2.1 27 28
r 1.3432 3 1 cbr 800 ------- 2 3.0 2.1 48 50
+ 1.3432 1 2 cbr 800 ------- 2 3.0 2.1 48 50
- 1.3432 1 2 cbr 800 ------- 2 3.0 2.1 48 50
+ 1.345 3 1 cbr 800 ------- 2 3.0 2.1 69 71
- 1.345 3 1 cbr 800 ------- 2 3.0 2.1 69 71
r 1.3464 1 2 cbr 800 ------- 2 3.0 2.1 28 29
r 1.3482 3 1 cbr 800 ------- 2 3.0 2.1 49 51
+ 1.3482 1 2 cbr 800 ------- 2 3.0 2.1 49 51
- 1.3482 1 2 cbr 800 ------- 2 3.0 2.1 49 51
+ 1.35 3 1 cbr 800 ------- 2 3.0 2.1 70 72
- 1.35 3 1 cbr 800 ------- 2 3.0 2.1 70 72
r 1.3514 1 2 cbr 800 ------- 2 3.0 2.1 29 30
r 1.3532 3 1 cbr 800 ------- 2 3.0 2.1 50 52
+ 1.3532 1 2 cbr 800 ------- 2 3.0 2.1 50 52
- 1.3532 1 2 cbr 800 ------- 2 3.0 2.1 50 52
+ 1.355 3 1 cbr 800 ------- 2 3.0 2.1 71 73
- 1.355 3 1 cbr 800 ------- 2 3.0 2.1 71 73
r 1.3564 1 2 cbr 800 ------- 2 3.0 2.1 30 31
r 1.3582 3 1 cbr 800 ------- 2 3.0 2.1 51 53
+ 1.3582 1 2 cbr 800 ------- 2 3.0 2.1 51 53
- 1.3582 1 2 cbr 800 ------- 2 3.0 2.1 51 53
+ 1.36 3 1 cbr 800 ------- 2 3.0 2.1 72 74
- 1.36 3 1 cbr 800 ------- 2 3.0 2.1 72 74
r 1.3614 1 2 cbr 800 ------- 2 3.0 2.1 31 32
r 1.3632 3 1 cbr 800 ------- 2 3.0 2.1 52 54
+ 1.3632 1 2 cbr 800 ------- 2 3.0 2.1 52 54
- 1.3632 1 2 cbr 800 ------- 2 3.0 2.1 52 54
+ 1.365 3 1 cbr 800 ------- 2 3.0 2.1 73 75
- 1.365 3 1 cbr 800 ------- 2 3.0 2.1 73 75
r 1.3664 1 2 cbr 800 ------- 2 3.0 2.1 32 33
r 1.3682 3 1 cbr 800 ------- 2 3.0 2.1 53 55
+ 1.3682 1 2 cbr 800 ------- 2 3.0 2.1 53 55
- 1.3682 1 2 cbr 800 ------- 2 3.0 2.1 53 55
+ 1.37 3 1 cbr 800 ------- 2 3.0 2.1 74 76
- 1.37 3 1 cbr 800 ------- 2 3.0 2.1 74 76
r 1.3714 1 2 cbr 800 ------- 2 3.0 2.1 33 34
r 1.3732 3 1 cbr 800 ------- 2 3.0 2.1 54 56
+ 1.3732 1 2 cbr 800 ------- 2 3.0 2.1 54 56
- 1.3732 1 2 cbr 800 ------- 2 3.0 2.1 54 56
+ 1.375 3 1 cbr 800 ------- 2 3.0 2.1 75 77
- 1.375 3 1 cbr 800 ------- 2 3.0 2.1 75 77
r 1.3764 1 2 cbr 800 ------- 2 3.0 2.1 34 35
r 1.3782 3 1 cbr 800 ------- 2 3.0 2.1 55 57
+ 1.3782 1 2 cbr 800 ------- 2 3.0 2.1 55 57
- 1.3782 1 2 cbr 800 ------- 2 3.0 2.1 55 57
+ 1.38 3 1 cbr 800 ------- 2 3.0 2.1 76 78
- 1.38 3 1 cbr 800 ------- 2 3.0 2.1 76 78
r 1.3814 1 2 cbr 800 ------- 2 3.0 2.1 35 36
r 1.3832 3 1 cbr 800 ------- 2 3.0 2.1 56 58
+ 1.3832 1 2 cbr 800 ------- 2 3.0 2.1 56 58
- 1.3832 1 2 cbr 800 ------- 2 3.0 2.1 56 58
+ 1.385 3 1 cbr 800 ------- 2 3.0 2.1 77 79
- 1.385 3 1 cbr 800 ------- 2 3.0 2.1 77 79
r 1.3864 1 2 cbr 800 ------- 2 3.0 2.1 36 37
r 1.3882 3 1 cbr 800 ------- 2 3.0 2.1 57 59
+ 1.3882 1 2 cbr 800 ------- 2 3.0 2.1 57 59
- 1.3882 1 2 cbr 800 ------- 2 3.0 2.1 57 59
+ 1.39 3 1 cbr 800 ------- 2 3.0 2.1 78 80
- 1.39 3 1 cbr 800 ------- 2 3.0 2.1 78 80
r 1.3914 1 2 cbr 800 ------- 2 3.0 2.1 37 38
r 1.3932 3 1 cbr 800 ------- 2 3.0 2.1 58 60
+ 1.3932 1 2 cbr 800 ------- 2 3.0 2.1 58 60
- 1.3932 1 2 cbr 800 ------- 2 3.0 2.1 58 60
+ 1.395 3 1 cbr 800 ------- 2 3.0 2.1 79 81
- 1.395 3 1 cbr 800 ------- 2 3.0 2.1 79 81
r 1.3964 1 2 cbr 800 ------- 2 3.0 2.1 38 39
r 1.3982 3 1 cbr 800 ------- 2 3.0 2.1 59 61
+ 1.3982 1 2 cbr 800 ------- 2 3.0 2.1 59 61
- 1.3982 1 2 cbr 800 ------- 2 3.0 2.1 59 61
+ 1.4 3 1 cbr 800 ------- 2 3.0 2.1 80 82
- 1.4 3 1 cbr 800 ------- 2 3.0 2.1 80 82
r 1.40064 1 0 ack 40 ------- 1 2.0 0.0 0 42
+ 1.40064 0 1 tcp 1040 ------- 1 0.0 2.0 1 83
- 1.40064 0 1 tcp 1040 ------- 1 0.0 2.0 1 83
+ 1.40064 0 1 tcp 1040 ------- 1 0.0 2.0 2 84
r 1.4014 1 2 cbr 800 ------- 2 3.0 2.1 39 40
r 1.4032 3 1 cbr 800 ------- 2 3.0 2.1 60 62
+ 1.4032 1 2 cbr 800 ------- 2 3.0 2.1 60 62
- 1.4032 1 2 cbr 800 ------- 2 3.0 2.1 60 62
- 1.4048 0 1 tcp 1040 ------- 1 0.0 2.0 2 84
+ 1.405 3 1 cbr 800 ------- 2 3.0 2.1 81 85
- 1.405 3 1 cbr 800 ------- 2 3.0 2.1 81 85
r 1.4064 1 2 cbr 800 ------- 2 3.0 2.1 40 41
r 1.4082 3 1 cbr 800 ------- 2 3.0 2.1 61 63
+ 1.4082 1 2 cbr 800 ------- 2 3.0 2.1 61 63
- 1.4082 1 2 cbr 800 ------- 2 3.0 2.1 61 63
+ 1.41 3 1 cbr 800 ------- 2 3.0 2.1 82 86
- 1.41 3 1 cbr 800 ------- 2 3.0 2.1 82 86
r 1.4114 1 2 cbr 800 ------- 2 3.0 2.1 41 43
r 1.4132 3 1 cbr 800 ------- 2 3.0 2.1 62 64
+ 1.4132 1 2 cbr 800 ------- 2 3.0 2.1 62 64
- 1.4132 1 2 cbr 800 ------- 2 3.0 2.1 62 64
+ 1.415 3 1 cbr 800 ------- 2 3.0 2.1 83 87
- 1.415 3 1 cbr 800 ------- 2 3.0 2.1 83 87
r 1.4164 1 2 cbr 800 ------- 2 3.0 2.1 42 44
r 1.4182 3 1 cbr 800 ------- 2 3.0 2.1 63 65
+ 1.4182 1 2 cbr 800 ------- 2 3.0 2.1 63 65
- 1.4182 1 2 cbr 800 ------- 2 3.0 2.1 63 65
+ 1.42 3 1 cbr 800 ------- 2 3.0 2.1 84 88
- 1.42 3 1 cbr 800 ------- 2 3.0 2.1 84 88
r 1.4214 1 2 cbr 800 ------- 2 3.0 2.1 43 45
r 1.4232 3 1 cbr 800 ------- 2 3.0 2.1 64 66
+ 1.4232 1 2 cbr 800 ------- 2 3.0 2.1 64 66
- 1.4232 1 2 cbr 800 ------- 2 3.0 2.1 64 66
+ 1.425 3 1 cbr 800 ------- 2 3.0 2.1 85 89
- 1.425 3 1 cbr 800 ------- 2 3.0 2.1 85 89
r 1.4264 1 2 cbr 800 ------- 2 3.0 2.1 44 46
r 1.4282 3 1 cbr 800 ------- 2 3.0 2.1 65 67
+ 1.4282 1 2 cbr 800 ------- 2 3.0 2.1 65 67
- 1.4282 1 2 cbr 800 ------- 2 3.0 2.1 65 67
+ 1.43 3 1 cbr 800 ------- 2 3.0 2.1 86 90
- 1.43 3 1 cbr 800 ------- 2 3.0 2.1 86 90
r 1.4314 1 2 cbr 800 ------- 2 3.0 2.1 45 47
r 1.4332 3 1 cbr 800 ------- 2 3.0 2.1 66 68
+ 1.4332 1 2 cbr 800 ------- 2 3.0 2.1 66 68
- 1.4332 1 2 cbr 800 ------- 2 3.0 2.1 66 68
+ 1.435 3 1 cbr 800 ------- 2 3.0 2.1 87 91
- 1.435 3 1 cbr 800 ------- 2 3.0 2.1 87 91
r 1.4364 1 2 cbr 800 ------- 2 3.0 2.1 46 48
r 1.4382 3 1 cbr 800 ------- 2 3.0 2.1 67 69
+ 1.4382 1 2 cbr 800 ------- 2 3.0 2.1 67 69
- 1.4382 1 2 cbr 800 ------- 2 3.0 2.1 67 69
+ 1.44 3 1 cbr 800 ------- 2 3.0 2.1 88 92
- 1.44 3 1 cbr 800 ------- 2 3.0 2.1 88 92
r 1.4414 1 2 cbr 800 ------- 2 3.0 2.1 47 49
r 1.4432 3 1 cbr 800 ------- 2 3.0 2.1 68 70
+ 1.4432 1 2 cbr 800 ------- 2 3.0 2.1 68 70
- 1.4432 1 2 cbr 800 ------- 2 3.0 2.1 68 70
+ 1.445 3 1 cbr 800 ------- 2 3.0 2.1 89 93
- 1.445 3 1 cbr 800 ------- 2 3.0 2.1 89 93
r 1.4464 1 2 cbr 800 ------- 2 3.0 2.1 48 50
r 1.4482 3 1 cbr 800 ------- 2 3.0 2.1 69 71
+ 1.4482 1 2 cbr 800 ------- 2 3.0 2.1 69 71
- 1.4482 1 2 cbr 800 ------- 2 3.0 2.1 69 71
+ 1.45 3 1 cbr 800 ------- 2 3.0 2.1 90 94
- 1.45 3 1 cbr 800 ------- 2 3.0 2.1 90 94
r 1.4514 1 2 cbr 800 ------- 2 3.0 2.1 49 51
r 1.4532 3 1 cbr 800 ------- 2 3.0 2.1 70 72
+ 1.4532 1 2 cbr 800 ------- 2 3.0 2.1 70 72
- 1.4532 1 2 cbr 800 ------- 2 3.0 2.1 70 72
+ 1.455 3 1 cbr 800 ------- 2 3.0 2.1 91 95
- 1.455 3 1 cbr 800 ------- 2 3.0 2.1 91 95
r 1.4564 1 2 cbr 800 ------- 2 3.0 2.1 50 52
r 1.4582 3 1 cbr 800 ------- 2 3.0 2.1 71 73
+ 1.4582 1 2 cbr 800 ------- 2 3.0 2.1 71 73
- 1.4582 1 2 cbr 800 ------- 2 3.0 2.1 71 73
+ 1.46 3 1 cbr 800 ------- 2 3.0 2.1 92 96
- 1.46 3 1 cbr 800 ------- 2 3.0 2.1 92 96
r 1.4614 1 2 cbr 800 ------- 2 3.0 2.1 51 53
r 1.4632 3 1 cbr 800 ------- 2 3.0 2.1 72 74
+ 1.4632 1 2 cbr 800 ------- 2 3.0 2.1 72 74
- 1.4632 1 2 cbr 800 ------- 2 3.0 2.1 72 74
+ 1.465 3 1 cbr 800 ------- 2 3.0 2.1 93 97
- 1.465 3 1 cbr 800 ------- 2 3.0 2.1 93 97
r 1.4664 1 2 cbr 800 ------- 2 3.0 2.1 52 54
r 1.4682 3 1 cbr 800 ------- 2 3.0 2.1 73 75
+ 1.4682 1 2 cbr 800 ------- 2 3.0 2.1 73 75
- 1.4682 1 2 cbr 800 ------- 2 3.0 2.1 73 75
+ 1.47 3 1 cbr 800 ------- 2 3.0 2.1 94 98
- 1.47 3 1 cbr 800 ------- 2 3.0 2.1 94 98
r 1.4714 1 2 cbr 800 ------- 2 3.0 2.1 53 55
r 1.4732 3 1 cbr 800 ------- 2 3.0 2.1 74 76
+ 1.4732 1 2 cbr 800 ------- 2 3.0 2.1 74 76
- 1.4732 1 2 cbr 800 ------- 2 3.0 2.1 74 76
+ 1.475 3 1 cbr 800 ------- 2 3.0 2.1 95 99
- 1.475 3 1 cbr 800 ------- 2 3.0 2.1 95 99
r 1.4764 1 2 cbr 800 ------- 2 3.0 2.1 54 56
r 1.4782 3 1 cbr 800 ------- 2 3.0 2.1 75 77
+ 1.4782 1 2 cbr 800 ------- 2 3.0 2.1 75 77
- 1.4782 1 2 cbr 800 ------- 2 3.0 2.1 75 77
+ 1.48 3 1 cbr 800 ------- 2 3.0 2.1 96 100
- 1.48 3 1 cbr 800 ------- 2 3.0 2.1 96 100
r 1.4814 1 2 cbr 800 ------- 2 3.0 2.1 55 57
r 1.4832 3 1 cbr 800 ------- 2 3.0 2.1 76 78
+ 1.4832 1 2 cbr 800 ------- 2 3.0 2.1 76 78
- 1.4832 1 2 cbr 800 ------- 2 3.0 2.1 76 78
+ 1.485 3 1 cbr 800 ------- 2 3.0 2.1 97 101
- 1.485 3 1 cbr 800 ------- 2 3.0 2.1 97 101
r 1.4864 1 2 cbr 800 ------- 2 3.0 2.1 56 58
r 1.4882 3 1 cbr 800 ------- 2 3.0 2.1 77 79
+ 1.4882 1 2 cbr 800 ------- 2 3.0 2.1 77 79
- 1.4882 1 2 cbr 800 ------- 2 3.0 2.1 77 79
+ 1.49 3 1 cbr 800 ------- 2 3.0 2.1 98 102
- 1.49 3 1 cbr 800 ------- 2 3.0 2.1 98 102
r 1.4914 1 2 cbr 800 ------- 2 3.0 2.1 57 59
r 1.4932 3 1 cbr 800 ------- 2 3.0 2.1 78 80
+ 1.4932 1 2 cbr 800 ------- 2 3.0 2.1 78 80
- 1.4932 1 2 cbr 800 ------- 2 3.0 2.1 78 80
+ 1.495 3 1 cbr 800 ------- 2 3.0 2.1 99 103
- 1.495 3 1 cbr 800 ------- 2 3.0 2.1 99 103
r 1.4964 1 2 cbr 800 ------- 2 3.0 2.1 58 60
r 1.4982 3 1 cbr 800 ------- 2 3.0 2.1 79 81
+ 1.4982 1 2 cbr 800 ------- 2 3.0 2.1 79 81
- 1.4982 1 2 cbr 800 ------- 2 3.0 2.1 79 81
+ 1.5 3 1 cbr 800 ------- 2 3.0 2.1 100 104
- 1.5 3 1 cbr 800 ------- 2 3.0 2.1 100 104
r 1.5014 1 2 cbr 800 ------- 2 3.0 2.1 59 61
r 1.5032 3 1 cbr 800 ------- 2 3.0 2.1 80 82
+ 1.5032 1 2 cbr 800 ------- 2 3.0 2.1 80 82
- 1.5032 1 2 cbr 800 ------- 2 3.0 2.1 80 82
r 1.5048 0 1 tcp 1040 ------- 1 0.0 2.0 1 83
+ 1.5048 1 2 tcp 1040 ------- 1 0.0 2.0 1 83
+ 1.505 3 1 cbr 800 ------- 2 3.0 2.1 101 105
- 1.505 3 1 cbr 800 ------- 2 3.0 2.1 101 105
- 1.5064 1 2 tcp 1040 ------- 1 0.0 2.0 1 83
r 1.5064 1 2 cbr 800 ------- 2 3.0 2.1 60 62
r 1.5082 3 1 cbr 800 ------- 2 3.0 2.1 81 85
+ 1.5082 1 2 cbr 800 ------- 2 3.0 2.1 81 85
r 1.50896 0 1 tcp 1040 ------- 1 0.0 2.0 2 84
+ 1.50896 1 2 tcp 1040 ------- 1 0.0 2.0 2 84
+ 1.51 3 1 cbr 800 ------- 2 3.0 2.1 102 106
- 1.51 3 1 cbr 800 ------- 2 3.0 2.1 102 106
- 1.51056 1 2 cbr 800 ------- 2 3.0 2.1 81 85
r 1.5114 1 2 cbr 800 ------- 2 3.0 2.1 61 63
r 1.5132 3 1 cbr 800 ------- 2 3.0 2.1 82 86
+ 1.5132 1 2 cbr 800 ------- 2 3.0 2.1 82 86
- 1.51376 1 2 tcp 1040 ------- 1 0.0 2.0 2 84
+ 1.515 3 1 cbr 800 ------- 2 3.0 2.1 103 107
- 1.515 3 1 cbr 800 ------- 2 3.0 2.1 103 107
r 1.5164 1 2 cbr 800 ------- 2 3.0 2.1 62 64
- 1.51792 1 2 cbr 800 ------- 2 3.0 2.1 82 86
r 1.5182 3 1 cbr 800 ------- 2 3.0 2.1 83 87
+ 1.5182 1 2 cbr 800 ------- 2 3.0 2.1 83 87
+ 1.52 3 1 cbr 800 ------- 2 3.0 2.1 104 108
- 1.52 3 1 cbr 800 ------- 2 3.0 2.1 104 108
- 1.52112 1 2 cbr 800 ------- 2 3.0 2.1 83 87
r 1.5214 1 2 cbr 800 ------- 2 3.0 2.1 63 65
r 1.5232 3 1 cbr 800 ------- 2 3.0 2.1 84 88
+ 1.5232 1 2 cbr 800 ------- 2 3.0 2.1 84 88
- 1.52432 1 2 cbr 800 ------- 2 3.0 2.1 84 88
+ 1.525 3 1 cbr 800 ------- 2 3.0 2.1 105 109
- 1.525 3 1 cbr 800 ------- 2 3.0 2.1 105 109
r 1.5264 1 2 cbr 800 ------- 2 3.0 2.1 64 66
r 1.5282 3 1 cbr 800 ------- 2 3.0 2.1 85 89
+ 1.5282 1 2 cbr 800 ------- 2 3.0 2.1 85 89
- 1.5282 1 2 cbr 800 ------- 2 3.0 2.1 85 89
+ 1.53 3 1 cbr 800 ------- 2 3.0 2.1 106 110
- 1.53 3 1 cbr 800 ------- 2 3.0 2.1 106 110
r 1.5314 1 2 cbr 800 ------- 2 3.0 2.1 65 67
r 1.5332 3 1 cbr 800 ------- 2 3.0 2.1 86 90
+ 1.5332 1 2 cbr 800 ------- 2 3.0 2.1 86 90
- 1.5332 1 2 cbr 800 ------- 2 3.0 2.1 86 90
+ 1.535 3 1 cbr 800 ------- 2 3.0 2.1 107 111
- 1.535 3 1 cbr 800 ------- 2 3.0 2.1 107 111
r 1.5364 1 2 cbr 800 ------- 2 3.0 2.1 66 68
r 1.5382 3 1 cbr 800 ------- 2 3.0 2.1 87 91
+ 1.5382 1 2 cbr 800 ------- 2 3.0 2.1 87 91
- 1.5382 1 2 cbr 800 ------- 2 3.0 2.1 87 91
+ 1.54 3 1 cbr 800 ------- 2 3.0 2.1 108 112
- 1.54 3 1 cbr 800 ------- 2 3.0 2.1 108 112
r 1.5414 1 2 cbr 800 ------- 2 3.0 2.1 67 69
r 1.5432 3 1 cbr 800 ------- 2 3.0 2.1 88 92
+ 1.5432 1 2 cbr 800 ------- 2 3.0 2.1 88 92
- 1.5432 1 2 cbr 800 ------- 2 3.0 2.1 88 92
+ 1.545 3 1 cbr 800 ------- 2 3.0 2.1 109 113
- 1.545 3 1 cbr 800 ------- 2 3.0 2.1 109 113
r 1.5464 1 2 cbr 800 ------- 2 3.0 2.1 68 70
r 1.5482 3 1 cbr 800 ------- 2 3.0 2.1 89 93
+ 1.5482 1 2 cbr 800 ------- 2 3.0 2.1 89 93
- 1.5482 1 2 cbr 800 ------- 2 3.0 2.1 89 93
+ 1.55 3 1 cbr 800 ------- 2 3.0 2.1 110 114
- 1.55 3 1 cbr 800 ------- 2 3.0 2.1 110 114
r 1.5514 1 2 cbr 800 ------- 2 3.0 2.1 69 71
r 1.5532 3 1 cbr 800 ------- 2 3.0 2.1 90 94
+ 1.5532 1 2 cbr 800 ------- 2 3.0 2.1 90 94
- 1.5532 1 2 cbr 800 ------- 2 3.0 2.1 90 94
+ 1.555 3 1 cbr 800 ------- 2 3.0 2.1 111 115
- 1.555 3 1 cbr 800 ------- 2 3.0 2.1 111 115
r 1.5564 1 2 cbr 800 ------- 2 3.0 2.1 70 72
r 1.5582 3 1 cbr 800 ------- 2 3.0 2.1 91 95
+ 1.5582 1 2 cbr 800 ------- 2 3.0 2.1 91 95
- 1.5582 1 2 cbr 800 ------- 2 3.0 2.1 91 95
+ 1.56 3 1 cbr 800 ------- 2 3.0 2.1 112 116
- 1.56 3 1 cbr 800 ------- 2 3.0 2.1 112 116
r 1.5614 1 2 cbr 800 ------- 2 3.0 2.1 71 73
r 1.5632 3 1 cbr 800 ------- 2 3.0 2.1 92 96
+ 1.5632 1 2 cbr 800 ------- 2 3.0 2.1 92 96
- 1.5632 1 2 cbr 800 ------- 2 3.0 2.1 92 96
+ 1.565 3 1 cbr 800 ------- 2 3.0 2.1 113 117
- 1.565 3 1 cbr 800 ------- 2 3.0 2.1 113 117
r 1.5664 1 2 cbr 800 ------- 2 3.0 2.1 72 74
r 1.5682 3 1 cbr 800 ------- 2 3.0 2.1 93 97
+ 1.5682 1 2 cbr 800 ------- 2 3.0 2.1 93 97
- 1.5682 1 2 cbr 800 ------- 2 3.0 2.1 93 97
+ 1.57 3 1 cbr 800 ------- 2 3.0 2.1 114 118
- 1.57 3 1 cbr 800 ------- 2 3.0 2.1 114 118
r 1.5714 1 2 cbr 800 ------- 2 3.0 2.1 73 75
r 1.5732 3 1 cbr 800 ------- 2 3.0 2.1 94 98
+ 1.5732 1 2 cbr 800 ------- 2 3.0 2.1 94 98
- 1.5732 1 2 cbr 800 ------- 2 3.0 2.1 94 98
+ 1.575 3 1 cbr 800 ------- 2 3.0 2.1 115 119
- 1.575 3 1 cbr 800 ------- 2 3.0 2.1 115 119
r 1.5764 1 2 cbr 800 ------- 2 3.0 2.1 74 76
r 1.5782 3 1 cbr 800 ------- 2 3.0 2.1 95 99
+ 1.5782 1 2 cbr 800 ------- 2 3.0 2.1 95 99
- 1.5782 1 2 cbr 800 ------- 2 3.0 2.1 95 99
+ 1.58 3 1 cbr 800 ------- 2 3.0 2.1 116 120
- 1.58 3 1 cbr 800 ------- 2 3.0 2.1 116 120
r 1.5814 1 2 cbr 800 ------- 2 3.0 2.1 75 77
r 1.5832 3 1 cbr 800 ------- 2 3.0 2.1 96 100
+ 1.5832 1 2 cbr 800 ------- 2 3.0 2.1 96 100
- 1.5832 1 2 cbr 800 ------- 2 3.0 2.1 96 100
+ 1.585 3 1 cbr 800 ------- 2 3.0 2.1 117 121
- 1.585 3 1 cbr 800 ------- 2 3.0 2.1 117 121
r 1.5864 1 2 cbr 800 ------- 2 3.0 2.1 76 78
r 1.5882 3 1 cbr 800 ------- 2 3.0 2.1 97 101
+ 1.5882 1 2 cbr 800 ------- 2 3.0 2.1 97 101
- 1.5882 1 2 cbr 800 ------- 2 3.0 2.1 97 101
+ 1.59 3 1 cbr 800 ------- 2 3.0 2.1 118 122
- 1.59 3 1 cbr 800 ------- 2 3.0 2.1 118 122
r 1.5914 1 2 cbr 800 ------- 2 3.0 2.1 77 79
r 1.5932 3 1 cbr 800 ------- 2 3.0 2.1 98 102
+ 1.5932 1 2 cbr 800 ------- 2 3.0 2.1 98 102
- 1.5932 1 2 cbr 800 ------- 2 3.0 2.1 98 102
+ 1.595 3 1 cbr 800 ------- 2 3.0 2.1 119 123
- 1.595 3 1 cbr 800 ------- 2 3.0 2.1 119 123
r 1.5964 1 2 cbr 800 ------- 2 3.0 2.1 78 80
r 1.5982 3 1 cbr 800 ------- 2 3.0 2.1 99 103
+ 1.5982 1 2 cbr 800 ------- 2 3.0 2.1 99 103
- 1.5982 1 2 cbr 800 ------- 2 3.0 2.1 99 103
+ 1.6 3 1 cbr 800 ------- 2 3.0 2.1 120 124
- 1.6 3 1 cbr 800 ------- 2 3.0 2.1 120 124
r 1.6014 1 2 cbr 800 ------- 2 3.0 2.1 79 81
r 1.6032 3 1 cbr 800 ------- 2 3.0 2.1 100 104
+ 1.6032 1 2 cbr 800 ------- 2 3.0 2.1 100 104
- 1.6032 1 2 cbr 800 ------- 2 3.0 2.1 100 104
+ 1.605 3 1 cbr 800 ------- 2 3.0 2.1 121 125
- 1.605 3 1 cbr 800 ------- 2 3.0 2.1 121 125
r 1.6064 1 2 cbr 800 ------- 2 3.0 2.1 80 82
r 1.6082 3 1 cbr 800 ------- 2 3.0 2.1 101 105
+ 1.6082 1 2 cbr 800 ------- 2 3.0 2.1 101 105
- 1.6082 1 2 cbr 800 ------- 2 3.0 2.1 101 105
+ 1.61 3 1 cbr 800 ------- 2 3.0 2.1 122 126
- 1.61 3 1 cbr 800 ------- 2 3.0 2.1 122 126
r 1.61056 1 2 tcp 1040 ------- 1 0.0 2.0 1 83
+ 1.61056 2 1 ack 40 ------- 1 2.0 0.0 1 127
- 1.61056 2 1 ack 40 ------- 1 2.0 0.0 1 127
r 1.6132 3 1 cbr 800 ------- 2 3.0 2.1 102 106
+ 1.6132 1 2 cbr 800 ------- 2 3.0 2.1 102 106
- 1.6132 1 2 cbr 800 ------- 2 3.0 2.1 102 106
r 1.61376 1 2 cbr 800 ------- 2 3.0 2.1 81 85
+ 1.615 3 1 cbr 800 ------- 2 3.0 2.1 123 128
- 1.615 3 1 cbr 800 ------- 2 3.0 2.1 123 128
r 1.61792 1 2 tcp 1040 ------- 1 0.0 2.0 2 84
+ 1.61792 2 1 ack 40 ------- 1 2.0 0.0 2 129
- 1.61792 2 1 ack 40 ------- 1 2.0 0.0 2 129
r 1.6182 3 1 cbr 800 ------- 2 3.0 2.1 103 107
+ 1.6182 1 2 cbr 800 ------- 2 3.0 2.1 103 107
- 1.6182 1 2 cbr 800 ------- 2 3.0 2.1 103 107
+ 1.62 3 1 cbr 800 ------- 2 3.0 2.1 124 130
- 1.62 3 1 cbr 800 ------- 2 3.0 2.1 124 130
r 1.62112 1 2 cbr 800 ------- 2 3.0 2.1 82 86
r 1.6232 3 1 cbr 800 ------- 2 3.0 2.1 104 108
+ 1.6232 1 2 cbr 800 ------- 2 3.0 2.1 104 108